
     Program PWSCF v.7.5 starts on 18Jun2026 at 21:54: 7 

     This program is part of the open-source Quantum ESPRESSO suite
     for quantum simulation of materials; please cite
         "P. Giannozzi et al., J. Phys.:Condens. Matter 21 395502 (2009);
         "P. Giannozzi et al., J. Phys.:Condens. Matter 29 465901 (2017);
         "P. Giannozzi et al., J. Chem. Phys. 152 154105 (2020);
          URL http://www.quantum-espresso.org", 
     in publications or presentations arising from this work. More details at
     http://www.quantum-espresso.org/quote

     Parallel version (MPI), running on    12 processors

     MPI processes distributed on     1 nodes
     22455 MiB available memory on the printing compute node when the environment starts

     Waiting for input...
     Reading input from standard input

     Current dimensions of program PWSCF are:
     Max number of different atomic species (ntypx) = 10
     Max number of k-points (npk) =  40000
     Max angular momentum in pseudopotentials (lmaxx) =  4
     file W.pbe-spn-kjpaw_psl.1.0.0.UPF: wavefunction(s)  6S 5P 5D renormalized
     file Se.pbe-dn-kjpaw_psl.1.0.0.UPF: wavefunction(s)  4S 4P 3D renormalized

     IMPORTANT: XC functional enforced from input :
     Exchange-correlation= VDW-DF2-B86R
                           (   1   4  26   0   2   0   0)
     Any further DFT definition will be discarded
     Please, verify this is what you really want


     R & G space division:  proc/nbgrp/npool/nimage =      12
     Subspace diagonalization in iterative solution of the eigenvalue problem:
     a serial algorithm will be used


     Parallelization info
     --------------------
     sticks:   dense  smooth     PW     G-vecs:    dense   smooth      PW
     Min         139      70     20                71489    25322    3895
     Max         140      71     22                71558    25395    3945
     Sum        1675     847    253               858263   304337   46813

     Using Slab Decomposition



     bravais-lattice index     =            4
     lattice parameter (alat)  =       6.1983  a.u.
     unit-cell volume          =    3143.7277 (a.u.)^3
     number of atoms/cell      =            6
     number of atomic types    =            2
     number of electrons       =        92.00
     number of Kohn-Sham states=           55
     kinetic-energy cutoff     =      80.0000  Ry
     charge density cutoff     =     640.0000  Ry
     scf convergence threshold =      1.0E-07
     mixing beta               =       0.1000
     number of iterations used =           12  local-TF  mixing
     Exchange-correlation= VDW-DF2-B86R
                           (   1   4  26   0   2   0   0)

     celldm(1)=   6.198302  celldm(2)=   0.000000  celldm(3)=  15.243902
     celldm(4)=   0.000000  celldm(5)=   0.000000  celldm(6)=   0.000000

     crystal axes: (cart. coord. in units of alat)
               a(1) = (   1.000000   0.000000   0.000000 )  
               a(2) = (  -0.500000   0.866025   0.000000 )  
               a(3) = (   0.000000   0.000000  15.243902 )  

     reciprocal axes: (cart. coord. in units 2 pi/alat)
               b(1) = (  1.000000  0.577350 -0.000000 )  
               b(2) = (  0.000000  1.154701  0.000000 )  
               b(3) = (  0.000000 -0.000000  0.065600 )  


     PseudoPot. # 1 for W  read from file:
     ./pseudo/W.pbe-spn-kjpaw_psl.1.0.0.UPF
     MD5 check sum: 03c3df5b60893f488392c7401945500a
     Pseudo is Projector augmented-wave + core cor, Zval = 14.0
     Generated using &quot;atomic&quot; code by A. Dal Corso  v.6.2.2
     Shape of augmentation charge: PSQ
     Using radial grid of 1273 points,  6 beta functions with: 
                l(1) =   0
                l(2) =   0
                l(3) =   1
                l(4) =   1
                l(5) =   2
                l(6) =   2
     Q(r) pseudized with 0 coefficients 


     PseudoPot. # 2 for Se read from file:
     ./pseudo/Se.pbe-dn-kjpaw_psl.1.0.0.UPF
     MD5 check sum: ac240dd2bae32a30e0bf3a38df9c8785
     Pseudo is Projector augmented-wave + core cor, Zval = 16.0
     Generated using &quot;atomic&quot; code by A. Dal Corso  v.6.3
     Shape of augmentation charge: PSQ
     Using radial grid of 1211 points,  6 beta functions with: 
                l(1) =   0
                l(2) =   0
                l(3) =   1
                l(4) =   1
                l(5) =   2
                l(6) =   2
     Q(r) pseudized with 0 coefficients 


     atomic species   valence    mass     pseudopotential
     W                14.00   183.84000     W ( 1.00)
     Se               16.00    78.96000     Se( 1.00)

      6 Sym. Ops. (no inversion) found



   Cartesian axes

     site n.     atom                  positions (alat units)
         1        Se     tau(   1) = (  -0.0000005   0.5773506   6.1149390  )
         2        W      tau(   2) = (   0.0000000   0.0000000   6.6383232  )
         3        Se     tau(   3) = (   0.5000005   0.2886748   7.1618445  )
         4        Se     tau(   4) = (  -0.0000005   0.5773506  10.2767530  )
         5        W      tau(   5) = (   0.5000005   0.2886748  10.8000000  )
         6        Se     tau(   6) = (   0.0000000   0.0000000  11.3240854  )

     number of k points=    30  Methfessel-Paxton smearing, width (Ry)=  0.0200
                       cart. coord. in units 2pi/alat
        k(    1) = (   0.0000000   0.0000000   0.0000000), wk =   0.0078125
        k(    2) = (   0.0000000   0.0721688   0.0000000), wk =   0.0468750
        k(    3) = (   0.0000000   0.1443376   0.0000000), wk =   0.0468750
        k(    4) = (   0.0000000   0.2165064   0.0000000), wk =   0.0468750
        k(    5) = (   0.0000000   0.2886751   0.0000000), wk =   0.0468750
        k(    6) = (   0.0000000   0.3608439   0.0000000), wk =   0.0468750
        k(    7) = (   0.0000000   0.4330127   0.0000000), wk =   0.0468750
        k(    8) = (   0.0000000   0.5051815   0.0000000), wk =   0.0468750
        k(    9) = (   0.0000000  -0.5773503   0.0000000), wk =   0.0234375
        k(   10) = (   0.0625000   0.1082532   0.0000000), wk =   0.0468750
        k(   11) = (   0.0625000   0.1804220   0.0000000), wk =   0.0937500
        k(   12) = (   0.0625000   0.2525907   0.0000000), wk =   0.0937500
        k(   13) = (   0.0625000   0.3247595   0.0000000), wk =   0.0937500
        k(   14) = (   0.0625000   0.3969283   0.0000000), wk =   0.0937500
        k(   15) = (   0.0625000   0.4690971   0.0000000), wk =   0.0937500
        k(   16) = (   0.0625000   0.5412659   0.0000000), wk =   0.0937500
        k(   17) = (   0.1250000   0.2165064   0.0000000), wk =   0.0468750
        k(   18) = (   0.1250000   0.2886751   0.0000000), wk =   0.0937500
        k(   19) = (   0.1250000   0.3608439   0.0000000), wk =   0.0937500
        k(   20) = (   0.1250000   0.4330127   0.0000000), wk =   0.0937500
        k(   21) = (   0.1250000   0.5051815   0.0000000), wk =   0.0937500
        k(   22) = (   0.1250000   0.5773503   0.0000000), wk =   0.0468750
        k(   23) = (   0.1875000   0.3247595   0.0000000), wk =   0.0468750
        k(   24) = (   0.1875000   0.3969283   0.0000000), wk =   0.0937500
        k(   25) = (   0.1875000   0.4690971   0.0000000), wk =   0.0937500
        k(   26) = (   0.1875000   0.5412659   0.0000000), wk =   0.0937500
        k(   27) = (   0.2500000   0.4330127   0.0000000), wk =   0.0468750
        k(   28) = (   0.2500000   0.5051815   0.0000000), wk =   0.0937500
        k(   29) = (   0.2500000   0.5773503   0.0000000), wk =   0.0468750
        k(   30) = (   0.3125000   0.5412659   0.0000000), wk =   0.0468750

     Dense  grid:   858263 G-vectors     FFT dimensions: (  50,  50, 768)

     Smooth grid:   304337 G-vectors     FFT dimensions: (  36,  36, 540)

     Estimated max dynamical RAM per process >     350.14 MB

     Estimated total dynamical RAM >       4.10 GB

     Initial potential from superposition of free atoms

     starting charge      91.9986, renormalised to      92.0000

     negative rho (up, down):  1.516E-04 0.000E+00


     %%%%%%%%%%%%%%%%%%%%%%%%%%%%%%%%%%%%%%%%%%%%%%%%%%%%%%%%%%%%%%%%%%%%%%%%
     %                                                                      %
     % You are using vdW-DF, which was implemented by the Thonhauser group. %
     % Please cite the following two papers that made this development      %
     % possible and the two reviews that describe the various versions:     %
     %                                                                      %
     %   T. Thonhauser et al., PRL 115, 136402 (2015).                      %
     %   T. Thonhauser et al., PRB 76, 125112 (2007).                       %
     %   K. Berland et al., Rep. Prog. Phys. 78, 066501 (2015).             %
     %   D.C. Langreth et al., J. Phys.: Condens. Matter 21, 084203 (2009). %
     %                                                                      %
     % If you are calculating stress with vdW-DF, please also cite:         %
     %                                                                      %
     %   R. Sabatini et al., J. Phys.: Condens. Matter 24, 424209 (2012).   %
     %                                                                      %
     %%%%%%%%%%%%%%%%%%%%%%%%%%%%%%%%%%%%%%%%%%%%%%%%%%%%%%%%%%%%%%%%%%%%%%%%

     %%%%%%%%%%%%%%%%%%%%%%%%%%%%%%%%%%%%%%%%%%%%%%%%%%%%%%%%%%%%%%%%%%%%%%%%
     %                                                                      %
     %  vdW-DF NEWS:                                                        %
     %                                                                      %
     %  * vdW-DF3 is now available. DOI: 10.1021/acs.jctc.0c00471           %
     %    use with input_dft = 'vdW-DF3-opt1' or 'vdW-DF3-opt2'             %
     %                                                                      %
     %  * Unscreened and range-separated hybrid vdW-DF-cx functionals       %
     %    DOI: 10.1063/1.4986522 and 10.1088/1361-648X/ac2ad2               %
     %    use with input_dft = 'vdW-DF-cx0'    and 'vdW-DF-ahcx'            %
     %  * Unscreened and range-separated hybrid vdW-DF2-b86r functionals    %
     %    DOI: 10.1063/1.4986522 and DOI: 10.1103/PhysRevX.12.041003        %
     %    use with input_dft = 'vdW-DF2-br0' and 'vdW-DF2-ahbr'             %
     %                                                                      %
     %%%%%%%%%%%%%%%%%%%%%%%%%%%%%%%%%%%%%%%%%%%%%%%%%%%%%%%%%%%%%%%%%%%%%%%%


     Starting wfcs are   62 randomized atomic wfcs
     Checking if some PAW data can be deallocated... 

     total cpu time spent up to now is       29.5 secs

     per-process dynamical memory:   142.9 Mb

     Self-consistent Calculation

     iteration #  1     ecut=    80.00 Ry     beta= 0.10
     Davidson diagonalization with overlap
     ethr =  1.00E-02,  avg # of iterations =  4.0

     Threshold (ethr) on eigenvalues was too large:
     Diagonalizing with lowered threshold

     Davidson diagonalization with overlap
     ethr =  1.09E-04,  avg # of iterations =  4.9

     negative rho (up, down):  8.120E-05 0.000E+00

     total cpu time spent up to now is      137.2 secs

     total energy              =   -3113.99231751 Ry
     estimated scf accuracy    <       0.12901893 Ry

     iteration #  2     ecut=    80.00 Ry     beta= 0.10
     Davidson diagonalization with overlap
     ethr =  1.40E-04,  avg # of iterations =  1.1

     negative rho (up, down):  8.131E-05 0.000E+00

     total cpu time spent up to now is      177.0 secs

     total energy              =   -3113.94804804 Ry
     estimated scf accuracy    <       0.11812276 Ry

     iteration #  3     ecut=    80.00 Ry     beta= 0.10
     Davidson diagonalization with overlap
     ethr =  1.28E-04,  avg # of iterations =  5.4

     negative rho (up, down):  1.401E-05 0.000E+00

     total cpu time spent up to now is      229.5 secs

     total energy              =   -3113.96239662 Ry
     estimated scf accuracy    <       0.02349205 Ry

     iteration #  4     ecut=    80.00 Ry     beta= 0.10
     Davidson diagonalization with overlap
     ethr =  2.55E-05,  avg # of iterations =  3.9

     negative rho (up, down):  1.545E-08 0.000E+00

     total cpu time spent up to now is      273.1 secs

     total energy              =   -3113.95788523 Ry
     estimated scf accuracy    <       0.02146780 Ry

     iteration #  5     ecut=    80.00 Ry     beta= 0.10
     Davidson diagonalization with overlap
     ethr =  2.33E-05,  avg # of iterations =  2.8

     negative rho (up, down):  1.052E-08 0.000E+00

     total cpu time spent up to now is      320.3 secs

     total energy              =   -3113.95965855 Ry
     estimated scf accuracy    <       0.00333240 Ry

     iteration #  6     ecut=    80.00 Ry     beta= 0.10
     Davidson diagonalization with overlap
     ethr =  3.62E-06,  avg # of iterations =  5.7

     negative rho (up, down):  1.481E-08 0.000E+00

     total cpu time spent up to now is      366.6 secs

     total energy              =   -3113.95895038 Ry
     estimated scf accuracy    <       0.00314936 Ry

     iteration #  7     ecut=    80.00 Ry     beta= 0.10
     Davidson diagonalization with overlap
     ethr =  3.42E-06,  avg # of iterations =  2.0

     negative rho (up, down):  2.166E-07 0.000E+00

     total cpu time spent up to now is      411.8 secs

     total energy              =   -3113.95824210 Ry
     estimated scf accuracy    <       0.00321072 Ry

     iteration #  8     ecut=    80.00 Ry     beta= 0.10
     Davidson diagonalization with overlap
     ethr =  3.42E-06,  avg # of iterations =  5.0

     total cpu time spent up to now is      460.8 secs

     total energy              =   -3113.95833789 Ry
     estimated scf accuracy    <       0.00091167 Ry

     iteration #  9     ecut=    80.00 Ry     beta= 0.10
     Davidson diagonalization with overlap
     ethr =  9.91E-07,  avg # of iterations =  2.6

     negative rho (up, down):  1.804E-08 0.000E+00

     total cpu time spent up to now is      509.0 secs

     total energy              =   -3113.95815886 Ry
     estimated scf accuracy    <       0.00092530 Ry

     iteration # 10     ecut=    80.00 Ry     beta= 0.10
     Davidson diagonalization with overlap
     c_bands:  1 eigenvalues not converged
     c_bands:  1 eigenvalues not converged
     ethr =  9.91E-07,  avg # of iterations =  6.6

     negative rho (up, down):  4.189E-08 0.000E+00

     total cpu time spent up to now is      557.2 secs

     total energy              =   -3113.95826609 Ry
     estimated scf accuracy    <       0.00047655 Ry

     iteration # 11     ecut=    80.00 Ry     beta= 0.10
     Davidson diagonalization with overlap
     ethr =  5.18E-07,  avg # of iterations =  3.6

     total cpu time spent up to now is      599.4 secs

     total energy              =   -3113.95834705 Ry
     estimated scf accuracy    <       0.00030190 Ry

     iteration # 12     ecut=    80.00 Ry     beta= 0.10
     Davidson diagonalization with overlap
     ethr =  3.28E-07,  avg # of iterations =  6.4

     negative rho (up, down):  1.611E-03 0.000E+00

     total cpu time spent up to now is      646.9 secs

     total energy              =   -3113.95838205 Ry
     estimated scf accuracy    <       0.00032192 Ry

     iteration # 13     ecut=    80.00 Ry     beta= 0.10
     Davidson diagonalization with overlap
     ethr =  3.28E-07,  avg # of iterations =  4.1

     negative rho (up, down):  1.763E-03 0.000E+00

     total cpu time spent up to now is      693.9 secs

     total energy              =   -3113.95838359 Ry
     estimated scf accuracy    <       0.00052325 Ry

     iteration # 14     ecut=    80.00 Ry     beta= 0.10
     Davidson diagonalization with overlap
     ethr =  3.28E-07,  avg # of iterations =  1.0

     negative rho (up, down):  1.458E-03 0.000E+00

     total cpu time spent up to now is      732.6 secs

     total energy              =   -3113.95832056 Ry
     estimated scf accuracy    <       0.00043739 Ry

     iteration # 15     ecut=    80.00 Ry     beta= 0.10
     Davidson diagonalization with overlap
     ethr =  3.28E-07,  avg # of iterations =  1.9

     negative rho (up, down):  2.599E-03 0.000E+00

     total cpu time spent up to now is      772.9 secs

     total energy              =   -3113.95827402 Ry
     estimated scf accuracy    <       0.00025381 Ry

     iteration # 16     ecut=    80.00 Ry     beta= 0.10
     Davidson diagonalization with overlap
     ethr =  2.76E-07,  avg # of iterations =  5.9

     negative rho (up, down):  1.315E-03 0.000E+00

     total cpu time spent up to now is      822.1 secs

     total energy              =   -3113.95824846 Ry
     estimated scf accuracy    <       0.00025557 Ry

     iteration # 17     ecut=    80.00 Ry     beta= 0.10
     Davidson diagonalization with overlap
     ethr =  2.76E-07,  avg # of iterations =  6.8

     negative rho (up, down):  2.699E-03 0.000E+00

     total cpu time spent up to now is      872.7 secs

     total energy              =   -3113.95826660 Ry
     estimated scf accuracy    <       0.00014264 Ry

     iteration # 18     ecut=    80.00 Ry     beta= 0.10
     Davidson diagonalization with overlap
     ethr =  1.55E-07,  avg # of iterations =  2.9

     negative rho (up, down):  2.905E-03 0.000E+00

     total cpu time spent up to now is      915.3 secs

     total energy              =   -3113.95825819 Ry
     estimated scf accuracy    <       0.00023742 Ry

     iteration # 19     ecut=    80.00 Ry     beta= 0.10
     Davidson diagonalization with overlap
     ethr =  1.55E-07,  avg # of iterations =  5.4

     negative rho (up, down):  2.487E-03 0.000E+00

     total cpu time spent up to now is      959.5 secs

     total energy              =   -3113.95820237 Ry
     estimated scf accuracy    <       0.00011677 Ry

     iteration # 20     ecut=    80.00 Ry     beta= 0.10
     Davidson diagonalization with overlap
     ethr =  1.27E-07,  avg # of iterations =  5.9

     negative rho (up, down):  2.206E-03 0.000E+00

     total cpu time spent up to now is     1014.5 secs

     total energy              =   -3113.95823905 Ry
     estimated scf accuracy    <       0.00006717 Ry

     iteration # 21     ecut=    80.00 Ry     beta= 0.10
     Davidson diagonalization with overlap
     ethr =  7.30E-08,  avg # of iterations =  1.3

     negative rho (up, down):  9.679E-04 0.000E+00

     total cpu time spent up to now is     1055.7 secs

     total energy              =   -3113.95824817 Ry
     estimated scf accuracy    <       0.00009835 Ry

     iteration # 22     ecut=    80.00 Ry     beta= 0.10
     Davidson diagonalization with overlap
     ethr =  7.30E-08,  avg # of iterations =  4.6

     negative rho (up, down):  9.646E-04 0.000E+00

     total cpu time spent up to now is     1108.5 secs

     total energy              =   -3113.95826204 Ry
     estimated scf accuracy    <       0.00000903 Ry

     iteration # 23     ecut=    80.00 Ry     beta= 0.10
     Davidson diagonalization with overlap
     ethr =  9.82E-09,  avg # of iterations =  1.4

     negative rho (up, down):  6.970E-04 0.000E+00

     total cpu time spent up to now is     1150.7 secs

     total energy              =   -3113.95826213 Ry
     estimated scf accuracy    <       0.00001518 Ry

     iteration # 24     ecut=    80.00 Ry     beta= 0.10
     Davidson diagonalization with overlap
     ethr =  9.82E-09,  avg # of iterations =  2.0

     negative rho (up, down):  2.630E-04 0.000E+00

     total cpu time spent up to now is     1196.6 secs

     total energy              =   -3113.95826265 Ry
     estimated scf accuracy    <       0.00000235 Ry

     iteration # 25     ecut=    80.00 Ry     beta= 0.10
     Davidson diagonalization with overlap
     ethr =  2.56E-09,  avg # of iterations =  2.0

     negative rho (up, down):  1.904E-04 0.000E+00

     total cpu time spent up to now is     1244.6 secs

     total energy              =   -3113.95826285 Ry
     estimated scf accuracy    <       0.00000078 Ry

     iteration # 26     ecut=    80.00 Ry     beta= 0.10
     Davidson diagonalization with overlap
     ethr =  8.43E-10,  avg # of iterations =  3.8

     negative rho (up, down):  1.991E-04 0.000E+00

     total cpu time spent up to now is     1296.3 secs

     total energy              =   -3113.95826201 Ry
     estimated scf accuracy    <       0.00000030 Ry

     iteration # 27     ecut=    80.00 Ry     beta= 0.10
     Davidson diagonalization with overlap
     ethr =  3.23E-10,  avg # of iterations =  3.2

     negative rho (up, down):  1.530E-04 0.000E+00

     total cpu time spent up to now is     1344.1 secs

     total energy              =   -3113.95826196 Ry
     estimated scf accuracy    <       0.00000018 Ry

     iteration # 28     ecut=    80.00 Ry     beta= 0.10
     Davidson diagonalization with overlap
     ethr =  1.98E-10,  avg # of iterations =  3.3

     negative rho (up, down):  1.331E-04 0.000E+00

     total cpu time spent up to now is     1392.1 secs

     total energy              =   -3113.95826289 Ry
     estimated scf accuracy    <       0.00000019 Ry

     iteration # 29     ecut=    80.00 Ry     beta= 0.10
     Davidson diagonalization with overlap
     ethr =  1.98E-10,  avg # of iterations =  2.2

     negative rho (up, down):  1.457E-04 0.000E+00

     total cpu time spent up to now is     1438.8 secs

     End of self-consistent calculation

          k = 0.0000 0.0000 0.0000 ( 38015 PWs)   bands (ev):

   -74.8830 -74.8828 -48.1487 -48.1487 -48.1482 -48.1482 -48.1479 -48.1479
   -48.1470 -48.1470 -48.1177 -48.1177 -48.1175 -48.1175 -48.1170 -48.1170
   -48.1163 -48.1163 -48.1036 -48.1032 -48.1029 -48.1022 -39.0759 -39.0755
   -39.0410 -39.0410 -39.0404 -39.0404 -15.5132 -15.5102 -14.4425 -14.4413
    -6.9749  -6.9732  -3.3541  -3.3541  -3.3495  -3.3495  -3.3310  -3.3308
    -1.3233  -1.3221  -0.6900  -0.6900  -0.6879  -0.6879   0.2055   0.2055
     0.2076   0.2076   3.1835   3.4078   3.4078   3.4096   3.4097

          k = 0.0000 0.0722 0.0000 ( 37975 PWs)   bands (ev):

   -74.8826 -74.8824 -48.1487 -48.1485 -48.1482 -48.1480 -48.1479 -48.1477
   -48.1470 -48.1469 -48.1178 -48.1178 -48.1175 -48.1174 -48.1171 -48.1171
   -48.1164 -48.1163 -48.1035 -48.1031 -48.1028 -48.1021 -39.0741 -39.0737
   -39.0501 -39.0494 -39.0432 -39.0425 -15.4521 -15.4491 -14.4145 -14.4133
    -6.8925  -6.8908  -3.8412  -3.8383  -3.3194  -3.3148  -2.9221  -2.9206
    -1.3972  -1.3967  -0.9765  -0.9746  -0.9191  -0.9168   0.1938   0.1953
     0.4070   0.4088   3.0508   3.0687   3.3224   3.3662   3.3680

          k = 0.0000 0.1443 0.0000 ( 37895 PWs)   bands (ev):

   -74.8814 -74.8813 -48.1486 -48.1483 -48.1480 -48.1479 -48.1475 -48.1472
   -48.1470 -48.1463 -48.1180 -48.1179 -48.1176 -48.1174 -48.1173 -48.1172
   -48.1165 -48.1163 -48.1032 -48.1029 -48.1026 -48.1018 -39.0759 -39.0753
   -39.0688 -39.0685 -39.0492 -39.0485 -15.2730 -15.2701 -14.3325 -14.3312
    -6.6528  -6.6510  -4.3465  -4.3432  -3.2364  -3.2318  -2.6993  -2.6983
    -2.0383  -2.0364  -1.3028  -1.3002  -1.1904  -1.1901   0.1959   0.1968
     0.7111   0.7124   2.4891   2.4976   3.2899   3.2915   3.6047

          k = 0.0000 0.2165 0.0000 ( 37851 PWs)   bands (ev):

   -74.8797 -74.8796 -48.1486 -48.1483 -48.1478 -48.1472 -48.1471 -48.1467
   -48.1464 -48.1455 -48.1184 -48.1181 -48.1178 -48.1177 -48.1174 -48.1173
   -48.1168 -48.1164 -48.1029 -48.1025 -48.1022 -48.1014 -39.1142 -39.1136
   -39.0612 -39.0608 -39.0582 -39.0575 -14.9897 -14.9869 -14.2031 -14.2016
    -6.2852  -6.2834  -4.7991  -4.7956  -3.2975  -3.2951  -3.1734  -3.1689
    -2.4456  -2.4452  -1.5955  -1.5927  -1.3294  -1.3292   0.2348   0.2355
     0.9140   0.9148   2.1806   2.1870   3.2635   3.2651   3.9902

          k = 0.0000 0.2887 0.0000 ( 37919 PWs)   bands (ev):

   -74.8777 -74.8776 -48.1486 -48.1483 -48.1479 -48.1471 -48.1463 -48.1459
   -48.1456 -48.1447 -48.1189 -48.1182 -48.1181 -48.1181 -48.1175 -48.1175
   -48.1170 -48.1164 -48.1024 -48.1020 -48.1018 -48.1010 -39.1591 -39.1584
   -39.0688 -39.0682 -39.0520 -39.0517 -14.6288 -14.6262 -14.0350 -14.0333
    -5.8943  -5.8924  -5.1156  -5.1125  -4.3554  -4.3528  -3.2189  -3.2147
    -2.6173  -2.6172  -1.6933  -1.6903  -1.6342  -1.6337   0.3929   0.3939
     1.0189   1.0196   2.3212   2.3274   3.3088   3.3103   4.4718

          k = 0.0000 0.3608 0.0000 ( 37933 PWs)   bands (ev):

   -74.8757 -74.8755 -48.1488 -48.1482 -48.1480 -48.1470 -48.1454 -48.1450
   -48.1447 -48.1438 -48.1194 -48.1185 -48.1184 -48.1183 -48.1176 -48.1175
   -48.1173 -48.1165 -48.1020 -48.1016 -48.1013 -48.1006 -39.2037 -39.2030
   -39.0794 -39.0788 -39.0429 -39.0426 -14.2442 -14.2417 -13.8300 -13.8280
    -5.9059  -5.9031  -5.3320  -5.3296  -4.9145  -4.9121  -3.3680  -3.3640
    -2.9642  -2.9642  -1.9386  -1.9381  -1.6330  -1.6300   0.7327   0.7334
     1.1123   1.1131   2.7657   2.7717   3.3826   3.3844   4.9688

          k = 0.0000 0.4330 0.0000 ( 37998 PWs)   bands (ev):

   -74.8740 -74.8738 -48.1489 -48.1481 -48.1481 -48.1470 -48.1447 -48.1443
   -48.1439 -48.1431 -48.1197 -48.1189 -48.1186 -48.1185 -48.1178 -48.1176
   -48.1175 -48.1165 -48.1016 -48.1012 -48.1010 -48.1002 -39.2412 -39.2404
   -39.0884 -39.0877 -39.0351 -39.0348 -13.9397 -13.9371 -13.5670 -13.5650
    -6.5204  -6.5175  -5.6014  -5.5990  -4.6920  -4.6902  -3.5326  -3.5287
    -3.2574  -3.2570  -2.1259  -2.1255  -1.5376  -1.5349   1.1982   1.1986
     1.2512   1.2525   3.2706   3.2749   3.4444   3.4464   4.5946

          k = 0.0000 0.5052 0.0000 ( 38048 PWs)   bands (ev):

   -74.8729 -74.8727 -48.1490 -48.1481 -48.1480 -48.1469 -48.1442 -48.1438
   -48.1434 -48.1426 -48.1200 -48.1192 -48.1186 -48.1186 -48.1178 -48.1176
   -48.1176 -48.1166 -48.1014 -48.1010 -48.1007 -48.1000 -39.2661 -39.2653
   -39.0944 -39.0937 -39.0299 -39.0296 -13.7782 -13.7754 -13.2987 -13.2967
    -7.0844  -7.0814  -5.6190  -5.6171  -4.7677  -4.7661  -3.6494  -3.6455
    -3.1904  -3.1895  -2.2440  -2.2437  -1.4763  -1.4738   1.4007   1.4023
     1.6695   1.6697   3.4604   3.4619   3.4807   3.4829   4.5575

          k = 0.0000-0.5774 0.0000 ( 38024 PWs)   bands (ev):

   -74.8725 -74.8723 -48.1490 -48.1482 -48.1480 -48.1469 -48.1440 -48.1437
   -48.1433 -48.1425 -48.1201 -48.1193 -48.1187 -48.1186 -48.1179 -48.1176
   -48.1176 -48.1166 -48.1013 -48.1009 -48.1006 -48.0999 -39.2748 -39.2740
   -39.0965 -39.0958 -39.0281 -39.0278 -13.7284 -13.7256 -13.1843 -13.1823
    -7.2971  -7.2941  -5.5837  -5.5822  -4.8899  -4.8881  -3.6907  -3.6869
    -3.0747  -3.0736  -2.2970  -2.2968  -1.4573  -1.4549   1.4674   1.4691
     1.8923   1.8926   3.4806   3.4809   3.4923   3.4945   4.2159

          k = 0.0625 0.1083 0.0000 ( 37895 PWs)   bands (ev):

   -74.8818 -74.8816 -48.1486 -48.1482 -48.1482 -48.1479 -48.1477 -48.1474
   -48.1470 -48.1465 -48.1180 -48.1178 -48.1176 -48.1174 -48.1173 -48.1171
   -48.1165 -48.1163 -48.1033 -48.1029 -48.1026 -48.1019 -39.0706 -39.0703
   -39.0672 -39.0666 -39.0475 -39.0468 -15.3319 -15.3290 -14.3595 -14.3582
    -6.7310  -6.7293  -4.2118  -4.2086  -3.2683  -3.2637  -2.7212  -2.7201
    -1.7786  -1.7771  -1.3116  -1.3091  -1.1006  -1.1001   0.2643   0.2653
     0.5595   0.5608   2.7062   2.7169   3.2248   3.2287   3.5260

          k = 0.0625 0.1804 0.0000 ( 37885 PWs)   bands (ev):

   -74.8804 -74.8802 -48.1486 -48.1483 -48.1478 -48.1475 -48.1471 -48.1470
   -48.1468 -48.1459 -48.1183 -48.1180 -48.1177 -48.1176 -48.1175 -48.1172
   -48.1166 -48.1164 -48.1030 -48.1026 -48.1023 -48.1016 -39.0986 -39.0979
   -39.0643 -39.0639 -39.0556 -39.0549 -15.1003 -15.0975 -14.2540 -14.2525
    -6.4232  -6.4214  -4.6438  -4.6404  -3.2597  -3.2554  -2.8026  -2.8009
    -2.4668  -2.4652  -1.6545  -1.6521  -1.1345  -1.1342   0.3257   0.3264
     0.6665   0.6673   2.4243   2.4320   3.0794   3.0813   3.8480

          k = 0.0625 0.2526 0.0000 ( 37916 PWs)   bands (ev):

   -74.8785 -74.8784 -48.1485 -48.1482 -48.1478 -48.1470 -48.1467 -48.1463
   -48.1460 -48.1451 -48.1187 -48.1181 -48.1180 -48.1179 -48.1175 -48.1174
   -48.1169 -48.1165 -48.1026 -48.1022 -48.1019 -48.1012 -39.1393 -39.1386
   -39.0667 -39.0660 -39.0556 -39.0552 -14.7763 -14.7736 -14.1061 -14.1045
    -6.0175  -6.0157  -5.0173  -5.0139  -3.9005  -3.8977  -3.1982  -3.1946
    -2.5972  -2.5961  -1.9150  -1.9131  -1.2051  -1.2044   0.2826   0.2831
     0.8748   0.8754   2.3582   2.3638   3.0894   3.0923   4.2780

          k = 0.0625 0.3248 0.0000 ( 37964 PWs)   bands (ev):

   -74.8765 -74.8763 -48.1486 -48.1482 -48.1478 -48.1470 -48.1459 -48.1455
   -48.1451 -48.1443 -48.1192 -48.1184 -48.1183 -48.1182 -48.1176 -48.1176
   -48.1171 -48.1165 -48.1022 -48.1018 -48.1015 -48.1008 -39.1829 -39.1822
   -39.0782 -39.0776 -39.0465 -39.0462 -14.3968 -14.3942 -13.9239 -13.9220
    -5.7463  -5.7439  -5.1871  -5.1845  -4.8236  -4.8209  -3.4312  -3.4279
    -2.7110  -2.7102  -2.2444  -2.2426  -1.2630  -1.2617   0.3963   0.3968
     1.1303   1.1308   2.5213   2.5254   3.2285   3.2325   4.8009

          k = 0.0625 0.3969 0.0000 ( 37981 PWs)   bands (ev):

   -74.8747 -74.8745 -48.1487 -48.1480 -48.1479 -48.1469 -48.1451 -48.1447
   -48.1443 -48.1435 -48.1196 -48.1188 -48.1185 -48.1183 -48.1177 -48.1176
   -48.1174 -48.1166 -48.1018 -48.1014 -48.1011 -48.1004 -39.2230 -39.2222
   -39.0890 -39.0883 -39.0381 -39.0378 -14.0393 -14.0367 -13.6976 -13.6956
    -6.1334  -6.1306  -5.5102  -5.5076  -4.7669  -4.7649  -3.6801  -3.6772
    -2.9780  -2.9771  -2.4730  -2.4712  -1.2576  -1.2561   0.6890   0.6892
     1.3997   1.4003   2.8056   2.8078   3.4525   3.4570   4.9715

          k = 0.0625 0.4691 0.0000 ( 38057 PWs)   bands (ev):

   -74.8733 -74.8731 -48.1488 -48.1480 -48.1479 -48.1468 -48.1445 -48.1441
   -48.1437 -48.1429 -48.1199 -48.1191 -48.1187 -48.1184 -48.1179 -48.1177
   -48.1175 -48.1166 -48.1015 -48.1011 -48.1008 -48.1001 -39.2534 -39.2527
   -39.0972 -39.0965 -39.0316 -39.0313 -13.8116 -13.8089 -13.4177 -13.4157
    -6.7859  -6.7829  -5.6140  -5.6118  -4.6526  -4.6510  -3.7943  -3.7911
    -3.1460  -3.1447  -2.5696  -2.5682  -1.2629  -1.2614   1.0646   1.0652
     1.6718   1.6725   3.0271   3.0287   3.6236   3.6262   4.6877

          k = 0.0625 0.5413 0.0000 ( 38034 PWs)   bands (ev):

   -74.8725 -74.8723 -48.1489 -48.1480 -48.1479 -48.1468 -48.1441 -48.1438
   -48.1434 -48.1426 -48.1200 -48.1192 -48.1188 -48.1185 -48.1180 -48.1177
   -48.1176 -48.1167 -48.1013 -48.1009 -48.1006 -48.0999 -39.2698 -39.2691
   -39.1016 -39.1009 -39.0281 -39.0278 -13.7120 -13.7092 -13.2112 -13.2093
    -7.1850  -7.1820  -5.5884  -5.5867  -4.8107  -4.8090  -3.8039  -3.8005
    -3.0689  -3.0677  -2.6200  -2.6188  -1.2899  -1.2884   1.3695   1.3709
     1.8443   1.8444   3.1805   3.1823   3.5382   3.5390   4.5448

          k = 0.1250 0.2165 0.0000 ( 37933 PWs)   bands (ev):

   -74.8788 -74.8786 -48.1485 -48.1482 -48.1477 -48.1470 -48.1469 -48.1465
   -48.1462 -48.1453 -48.1187 -48.1181 -48.1179 -48.1178 -48.1176 -48.1174
   -48.1168 -48.1165 -48.1027 -48.1023 -48.1020 -48.1013 -39.1310 -39.1303
   -39.0674 -39.0667 -39.0567 -39.0563 -14.8268 -14.8241 -14.1305 -14.1289
    -6.0620  -6.0603  -4.9693  -4.9658  -3.7346  -3.7313  -2.9755  -2.9743
    -2.8972  -2.8937  -1.9108  -1.9093  -1.0338  -1.0335   0.2810   0.2813
     0.7079   0.7087   2.6881   2.6942   2.6943   2.6988   4.2149

          k = 0.1250 0.2887 0.0000 ( 37936 PWs)   bands (ev):

   -74.8770 -74.8768 -48.1484 -48.1480 -48.1477 -48.1468 -48.1462 -48.1458
   -48.1454 -48.1446 -48.1191 -48.1183 -48.1182 -48.1180 -48.1177 -48.1175
   -48.1170 -48.1166 -48.1023 -48.1019 -48.1016 -48.1008 -39.1683 -39.1676
   -39.0811 -39.0804 -39.0484 -39.0481 -14.4778 -14.4751 -13.9723 -13.9705
    -5.6470  -5.6452  -5.2269  -5.2236  -4.5427  -4.5397  -3.4373  -3.4351
    -2.9736  -2.9707  -2.1956  -2.1946  -0.9220  -0.9213   0.1001   0.1003
     1.0904   1.0910   2.3997   2.4009   3.0529   3.0616   4.6900

          k = 0.1250 0.3608 0.0000 ( 38000 PWs)   bands (ev):

   -74.8751 -74.8749 -48.1485 -48.1478 -48.1476 -48.1467 -48.1455 -48.1451
   -48.1447 -48.1439 -48.1195 -48.1186 -48.1184 -48.1182 -48.1178 -48.1176
   -48.1172 -48.1167 -48.1019 -48.1015 -48.1012 -48.1005 -39.2050 -39.2043
   -39.0952 -39.0946 -39.0401 -39.0397 -14.1028 -14.1003 -13.7847 -13.7826
    -5.7188  -5.7161  -5.3682  -5.3655  -4.8994  -4.8972  -3.8251  -3.8227
    -3.0773  -3.0749  -2.6313  -2.6303  -0.8444  -0.8436   0.2107   0.2109
     1.4763   1.4768   2.3197   2.3207   3.4231   3.4304   5.2447

          k = 0.1250 0.4330 0.0000 ( 38048 PWs)   bands (ev):

   -74.8735 -74.8734 -48.1485 -48.1477 -48.1476 -48.1465 -48.1449 -48.1445
   -48.1441 -48.1433 -48.1197 -48.1189 -48.1187 -48.1183 -48.1179 -48.1178
   -48.1174 -48.1168 -48.1015 -48.1012 -48.1009 -48.1001 -39.2359 -39.2351
   -39.1073 -39.1066 -39.0329 -39.0326 -13.8100 -13.8074 -13.5405 -13.5383
    -6.3517  -6.3488  -5.5605  -5.5579  -4.5557  -4.5539  -4.0753  -4.0728
    -3.2069  -3.2047  -3.0015  -3.0004  -0.8652  -0.8645   0.5633   0.5636
     1.7616   1.7624   2.4235   2.4246   3.7226   3.7268   5.1487

          k = 0.1250 0.5052 0.0000 ( 38027 PWs)   bands (ev):

   -74.8725 -74.8723 -48.1485 -48.1476 -48.1475 -48.1464 -48.1445 -48.1442
   -48.1437 -48.1429 -48.1199 -48.1191 -48.1189 -48.1183 -48.1181 -48.1179
   -48.1174 -48.1168 -48.1013 -48.1010 -48.1006 -48.0999 -39.2563 -39.2556
   -39.1154 -39.1147 -39.0282 -39.0278 -13.6640 -13.6613 -13.2841 -13.2820
    -6.8722  -6.8693  -5.5838  -5.5816  -4.6174  -4.6156  -4.0413  -4.0385
    -3.2960  -3.2941  -3.1054  -3.1041  -0.9534  -0.9529   1.0176   1.0182
     1.8428   1.8437   2.6200   2.6213   3.7170   3.7188   5.0407

          k = 0.1250 0.5774 0.0000 ( 37968 PWs)   bands (ev):

   -74.8721 -74.8719 -48.1485 -48.1476 -48.1475 -48.1464 -48.1443 -48.1440
   -48.1435 -48.1428 -48.1199 -48.1191 -48.1190 -48.1183 -48.1181 -48.1179
   -48.1174 -48.1168 -48.1012 -48.1009 -48.1005 -48.0998 -39.2635 -39.2628
   -39.1182 -39.1176 -39.0265 -39.0262 -13.6192 -13.6165 -13.1767 -13.1746
    -7.0653  -7.0623  -5.5676  -5.5657  -4.7231  -4.7213  -4.0198  -4.0170
    -3.3158  -3.3141  -3.0739  -3.0725  -1.0052  -1.0047   1.3109   1.3120
     1.7518   1.7524   2.7563   2.7577   3.5866   3.5876   4.9876

          k = 0.1875 0.3248 0.0000 ( 37987 PWs)   bands (ev):

   -74.8753 -74.8751 -48.1483 -48.1477 -48.1475 -48.1465 -48.1457 -48.1453
   -48.1449 -48.1441 -48.1194 -48.1186 -48.1182 -48.1181 -48.1180 -48.1176
   -48.1172 -48.1168 -48.1019 -48.1015 -48.1012 -48.1005 -39.1969 -39.1962
   -39.0993 -39.0986 -39.0407 -39.0404 -14.1248 -14.1223 -13.8150 -13.8129
    -5.4152  -5.4122  -5.3939  -5.3914  -4.9765  -4.9740  -3.8267  -3.8249
    -3.3839  -3.3807  -2.5099  -2.5092  -0.5912  -0.5905  -0.0582  -0.0580
     1.4829   1.4834   2.1259   2.1265   3.4151   3.4235   5.2051

          k = 0.1875 0.3969 0.0000 ( 38014 PWs)   bands (ev):

   -74.8737 -74.8735 -48.1481 -48.1473 -48.1473 -48.1462 -48.1453 -48.1449
   -48.1445 -48.1437 -48.1197 -48.1188 -48.1185 -48.1182 -48.1181 -48.1178
   -48.1173 -48.1170 -48.1016 -48.1012 -48.1009 -48.1002 -39.2216 -39.2208
   -39.1177 -39.1170 -39.0336 -39.0333 -13.7820 -13.7796 -13.6351 -13.6328
    -5.9341  -5.9313  -5.5137  -5.5107  -4.6026  -4.6007  -4.1798  -4.1778
    -3.7281  -3.7253  -2.9135  -2.9126  -0.4266  -0.4262   0.0862   0.0863
     1.7972   1.7978   2.0413   2.0418   3.7680   3.7734   5.6541

          k = 0.1875 0.4691 0.0000 ( 38010 PWs)   bands (ev):

   -74.8725 -74.8723 -48.1480 -48.1471 -48.1471 -48.1460 -48.1449 -48.1446
   -48.1441 -48.1434 -48.1198 -48.1190 -48.1188 -48.1183 -48.1181 -48.1180
   -48.1174 -48.1170 -48.1013 -48.1010 -48.1006 -48.0999 -39.2395 -39.2388
   -39.1326 -39.1319 -39.0282 -39.0279 -13.5884 -13.5859 -13.3838 -13.3816
    -6.4489  -6.4460  -5.5644  -5.5616  -4.4324  -4.4303  -4.2339  -4.2320
    -3.9796  -3.9773  -3.2112  -3.2102  -0.5218  -0.5217   0.5267   0.5269
     1.8550   1.8559   2.2084   2.2090   3.9057   3.9082   5.3077

          k = 0.1875 0.5413 0.0000 ( 38010 PWs)   bands (ev):

   -74.8718 -74.8716 -48.1479 -48.1471 -48.1469 -48.1458 -48.1447 -48.1444
   -48.1440 -48.1432 -48.1198 -48.1191 -48.1190 -48.1183 -48.1182 -48.1181
   -48.1174 -48.1170 -48.1011 -48.1009 -48.1005 -48.0998 -39.2489 -39.2482
   -39.1410 -39.1403 -39.0252 -39.0249 -13.5099 -13.5073 -13.2002 -13.1980
    -6.7484  -6.7455  -5.5720  -5.5696  -4.5638  -4.5615  -4.1703  -4.1682
    -4.0578  -4.0560  -3.2642  -3.2629  -0.6305  -0.6305   0.9962   0.9966
     1.6238   1.6248   2.4853   2.4861   3.7026   3.7042   5.2886

          k = 0.2500 0.4330 0.0000 ( 38031 PWs)   bands (ev):

   -74.8725 -74.8723 -48.1478 -48.1469 -48.1468 -48.1457 -48.1452 -48.1448
   -48.1444 -48.1436 -48.1197 -48.1189 -48.1187 -48.1185 -48.1182 -48.1179
   -48.1175 -48.1171 -48.1013 -48.1010 -48.1006 -48.0999 -39.2306 -39.2299
   -39.1416 -39.1409 -39.0282 -39.0279 -13.5021 -13.5000 -13.4798 -13.4772
    -6.1949  -6.1922  -5.5614  -5.5584  -4.4142  -4.4121  -4.3796  -4.3776
    -4.1708  -4.1686  -3.2823  -3.2814  -0.0362  -0.0356   0.0119   0.0126
     1.8434   1.8439   2.0828   2.0831   3.9875   3.9904   5.4289

          k = 0.2500 0.5052 0.0000 ( 38019 PWs)   bands (ev):

   -74.8717 -74.8715 -48.1474 -48.1466 -48.1465 -48.1454 -48.1451 -48.1448
   -48.1444 -48.1436 -48.1197 -48.1190 -48.1189 -48.1186 -48.1182 -48.1181
   -48.1176 -48.1171 -48.1011 -48.1009 -48.1005 -48.0998 -39.2329 -39.2322
   -39.1614 -39.1607 -39.0246 -39.0243 -13.4030 -13.4005 -13.2654 -13.2630
    -6.3662  -6.3635  -5.5912  -5.5883  -4.8078  -4.8051  -4.3759  -4.3743
    -4.0461  -4.0445  -3.5453  -3.5442  -0.1484  -0.1482   0.4470   0.4472
     1.5633   1.5644   2.4195   2.4199   3.8670   3.8689   5.1177

          k = 0.2500 0.5774 0.0000 ( 38023 PWs)   bands (ev):

   -74.8714 -74.8712 -48.1473 -48.1464 -48.1463 -48.1452 -48.1451 -48.1449
   -48.1444 -48.1436 -48.1196 -48.1192 -48.1188 -48.1186 -48.1183 -48.1181
   -48.1176 -48.1171 -48.1010 -48.1008 -48.1004 -48.0997 -39.2324 -39.2317
   -39.1696 -39.1689 -39.0233 -39.0230 -13.3677 -13.3652 -13.1855 -13.1832
    -6.4243  -6.4214  -5.5984  -5.5956  -4.9759  -4.9731  -4.2110  -4.2095
    -4.2078  -4.2064  -3.5627  -3.5615  -0.2095  -0.2093   0.8045   0.8048
     1.2267   1.2284   2.7044   2.7051   3.6199   3.6214   5.0424

          k = 0.3125 0.5413 0.0000 ( 38095 PWs)   bands (ev):

   -74.8712 -74.8711 -48.1469 -48.1461 -48.1459 -48.1455 -48.1452 -48.1449
   -48.1446 -48.1440 -48.1194 -48.1191 -48.1189 -48.1187 -48.1184 -48.1181
   -48.1178 -48.1171 -48.1010 -48.1008 -48.1004 -48.0997 -39.2175 -39.2168
   -39.1887 -39.1880 -39.0226 -39.0223 -13.2804 -13.2780 -13.2184 -13.2159
    -6.1139  -6.1112  -5.6280  -5.6250  -5.4141  -5.4112  -4.2209  -4.2196
    -3.9255  -3.9239  -3.8943  -3.8932   0.2308   0.2315   0.4108   0.4109
     1.0785   1.0802   2.9091   2.9099   3.5408   3.5422   4.8452

     the Fermi energy is    -0.0070 ev

!    total energy              =   -3113.95826275 Ry
     total all-electron energy =    -83998.682827 Ry
     estimated scf accuracy    <       0.00000008 Ry
     smearing contrib. (-TS)   =       0.00046672 Ry
     internal energy E=F+TS    =   -3113.95872948 Ry

     The total energy is F=E-TS. E is the sum of the following terms:
     one-electron contribution =  -16485.51699211 Ry
     hartree contribution      =    8229.92356165 Ry
     xc contribution           =    -193.57614526 Ry
     ewald contribution        =    7096.52486085 Ry
     one-center paw contrib.   =   -1761.31401461 Ry

     convergence has been achieved in  29 iterations

     Writing all to output data dir ./tmp/cleave_036/wse2_cleave_036.save/ :
     XML data file, charge density, pseudopotentials, collected wavefunctions

     init_run     :     28.87s CPU     29.27s WALL (       1 calls)
     electrons    :   1373.17s CPU   1409.38s WALL (       1 calls)

     Called by init_run:
     wfcinit      :     15.98s CPU     16.09s WALL (       1 calls)
     potinit      :     11.84s CPU     11.94s WALL (       1 calls)
     hinit0       :      0.11s CPU      0.12s WALL (       1 calls)

     Called by electrons:
     c_bands      :   1156.39s CPU   1181.06s WALL (      30 calls)
     sum_band     :    154.32s CPU    160.68s WALL (      30 calls)
     v_of_rho     :     36.10s CPU     37.54s WALL (      30 calls)
     newd         :     22.05s CPU     25.57s WALL (      30 calls)
     PAW_pot      :      2.99s CPU      3.05s WALL (      30 calls)
     mix_rho      :     13.29s CPU     13.60s WALL (      30 calls)
     vdW_kernel   :     10.88s CPU     10.89s WALL (       1 calls)

     Called by c_bands:
     init_us_2    :      3.62s CPU      3.64s WALL (    1830 calls)
     cegterg      :   1120.77s CPU   1144.29s WALL (     900 calls)

     Called by *egterg:
     cdiaghg      :     11.15s CPU     11.18s WALL (    4225 calls)
     h_psi        :    422.11s CPU    428.52s WALL (    4285 calls)
     s_psi        :     72.22s CPU     72.29s WALL (    4285 calls)
     g_psi        :      0.67s CPU      0.68s WALL (    3355 calls)

     Called by h_psi:
     h_psi:calbec :    170.33s CPU    174.29s WALL (    4285 calls)
     vloc_psi     :    174.85s CPU    177.20s WALL (    4285 calls)
                                        0.00s GPU  (    4285 calls)
     add_vuspsi   :     75.92s CPU     76.01s WALL (    4285 calls)

     General routines
     calbec       :    247.42s CPU    253.20s WALL (    5185 calls)
     fft          :     19.26s CPU     19.85s WALL (    1889 calls)
     ffts         :      5.56s CPU      5.69s WALL (    3504 calls)
     fftw         :    203.65s CPU    206.48s WALL (  269584 calls)
     interpolate  :      0.32s CPU      0.34s WALL (      30 calls)

     Parallel routines

     PWSCF        :  23m22.84s CPU  23m59.83s WALL


   This run was terminated on:  22:18: 7  18Jun2026            

=------------------------------------------------------------------------------=
   JOB DONE.
=------------------------------------------------------------------------------=
Note: The following floating-point exceptions are signalling: IEEE_UNDERFLOW_FLAG IEEE_DENORMAL
Note: The following floating-point exceptions are signalling: IEEE_UNDERFLOW_FLAG IEEE_DENORMAL
Note: The following floating-point exceptions are signalling: IEEE_UNDERFLOW_FLAG IEEE_DENORMAL
Note: The following floating-point exceptions are signalling: IEEE_UNDERFLOW_FLAG IEEE_DENORMAL
Note: The following floating-point exceptions are signalling: IEEE_UNDERFLOW_FLAG IEEE_DENORMAL
Note: The following floating-point exceptions are signalling: IEEE_UNDERFLOW_FLAG IEEE_DENORMAL
Note: The following floating-point exceptions are signalling: IEEE_UNDERFLOW_FLAG IEEE_DENORMAL
Note: The following floating-point exceptions are signalling: IEEE_UNDERFLOW_FLAG IEEE_DENORMAL
Note: The following floating-point exceptions are signalling: IEEE_UNDERFLOW_FLAG IEEE_DENORMAL
Note: The following floating-point exceptions are signalling: IEEE_UNDERFLOW_FLAG IEEE_DENORMAL
Note: The following floating-point exceptions are signalling: IEEE_UNDERFLOW_FLAG IEEE_DENORMAL
Note: The following floating-point exceptions are signalling: IEEE_UNDERFLOW_FLAG IEEE_DENORMAL
