
     Program PWSCF v.7.5 starts on 18Jun2026 at 20:51:24 

     This program is part of the open-source Quantum ESPRESSO suite
     for quantum simulation of materials; please cite
         "P. Giannozzi et al., J. Phys.:Condens. Matter 21 395502 (2009);
         "P. Giannozzi et al., J. Phys.:Condens. Matter 29 465901 (2017);
         "P. Giannozzi et al., J. Chem. Phys. 152 154105 (2020);
          URL http://www.quantum-espresso.org", 
     in publications or presentations arising from this work. More details at
     http://www.quantum-espresso.org/quote

     Parallel version (MPI), running on    12 processors

     MPI processes distributed on     1 nodes
     22720 MiB available memory on the printing compute node when the environment starts

     Waiting for input...
     Reading input from standard input

     Current dimensions of program PWSCF are:
     Max number of different atomic species (ntypx) = 10
     Max number of k-points (npk) =  40000
     Max angular momentum in pseudopotentials (lmaxx) =  4
     file W.pbe-spn-kjpaw_psl.1.0.0.UPF: wavefunction(s)  6S 5P 5D renormalized
     file Se.pbe-dn-kjpaw_psl.1.0.0.UPF: wavefunction(s)  4S 4P 3D renormalized

     IMPORTANT: XC functional enforced from input :
     Exchange-correlation= VDW-DF2-B86R
                           (   1   4  26   0   2   0   0)
     Any further DFT definition will be discarded
     Please, verify this is what you really want


     R & G space division:  proc/nbgrp/npool/nimage =      12
     Subspace diagonalization in iterative solution of the eigenvalue problem:
     a serial algorithm will be used


     Parallelization info
     --------------------
     sticks:   dense  smooth     PW     G-vecs:    dense   smooth      PW
     Min         139      70     20                71489    25322    3895
     Max         140      71     22                71558    25395    3945
     Sum        1675     847    253               858263   304337   46813

     Using Slab Decomposition



     bravais-lattice index     =            4
     lattice parameter (alat)  =       6.1983  a.u.
     unit-cell volume          =    3143.7277 (a.u.)^3
     number of atoms/cell      =            6
     number of atomic types    =            2
     number of electrons       =        92.00
     number of Kohn-Sham states=           55
     kinetic-energy cutoff     =      80.0000  Ry
     charge density cutoff     =     640.0000  Ry
     scf convergence threshold =      1.0E-07
     mixing beta               =       0.1000
     number of iterations used =           12  local-TF  mixing
     Exchange-correlation= VDW-DF2-B86R
                           (   1   4  26   0   2   0   0)

     celldm(1)=   6.198302  celldm(2)=   0.000000  celldm(3)=  15.243902
     celldm(4)=   0.000000  celldm(5)=   0.000000  celldm(6)=   0.000000

     crystal axes: (cart. coord. in units of alat)
               a(1) = (   1.000000   0.000000   0.000000 )  
               a(2) = (  -0.500000   0.866025   0.000000 )  
               a(3) = (   0.000000   0.000000  15.243902 )  

     reciprocal axes: (cart. coord. in units 2 pi/alat)
               b(1) = (  1.000000  0.577350 -0.000000 )  
               b(2) = (  0.000000  1.154701  0.000000 )  
               b(3) = (  0.000000 -0.000000  0.065600 )  


     PseudoPot. # 1 for W  read from file:
     ./pseudo/W.pbe-spn-kjpaw_psl.1.0.0.UPF
     MD5 check sum: 03c3df5b60893f488392c7401945500a
     Pseudo is Projector augmented-wave + core cor, Zval = 14.0
     Generated using &quot;atomic&quot; code by A. Dal Corso  v.6.2.2
     Shape of augmentation charge: PSQ
     Using radial grid of 1273 points,  6 beta functions with: 
                l(1) =   0
                l(2) =   0
                l(3) =   1
                l(4) =   1
                l(5) =   2
                l(6) =   2
     Q(r) pseudized with 0 coefficients 


     PseudoPot. # 2 for Se read from file:
     ./pseudo/Se.pbe-dn-kjpaw_psl.1.0.0.UPF
     MD5 check sum: ac240dd2bae32a30e0bf3a38df9c8785
     Pseudo is Projector augmented-wave + core cor, Zval = 16.0
     Generated using &quot;atomic&quot; code by A. Dal Corso  v.6.3
     Shape of augmentation charge: PSQ
     Using radial grid of 1211 points,  6 beta functions with: 
                l(1) =   0
                l(2) =   0
                l(3) =   1
                l(4) =   1
                l(5) =   2
                l(6) =   2
     Q(r) pseudized with 0 coefficients 


     atomic species   valence    mass     pseudopotential
     W                14.00   183.84000     W ( 1.00)
     Se               16.00    78.96000     Se( 1.00)

      6 Sym. Ops. (no inversion) found



   Cartesian axes

     site n.     atom                  positions (alat units)
         1        Se     tau(   1) = (  -0.0000005   0.5773506   6.1149390  )
         2        W      tau(   2) = (   0.0000000   0.0000000   6.6383232  )
         3        Se     tau(   3) = (   0.5000005   0.2886748   7.1618445  )
         4        Se     tau(   4) = (  -0.0000005   0.5773506   9.9718750  )
         5        W      tau(   5) = (   0.5000005   0.2886748  10.4951220  )
         6        Se     tau(   6) = (   0.0000000   0.0000000  11.0192073  )

     number of k points=    30  Methfessel-Paxton smearing, width (Ry)=  0.0200
                       cart. coord. in units 2pi/alat
        k(    1) = (   0.0000000   0.0000000   0.0000000), wk =   0.0078125
        k(    2) = (   0.0000000   0.0721688   0.0000000), wk =   0.0468750
        k(    3) = (   0.0000000   0.1443376   0.0000000), wk =   0.0468750
        k(    4) = (   0.0000000   0.2165064   0.0000000), wk =   0.0468750
        k(    5) = (   0.0000000   0.2886751   0.0000000), wk =   0.0468750
        k(    6) = (   0.0000000   0.3608439   0.0000000), wk =   0.0468750
        k(    7) = (   0.0000000   0.4330127   0.0000000), wk =   0.0468750
        k(    8) = (   0.0000000   0.5051815   0.0000000), wk =   0.0468750
        k(    9) = (   0.0000000  -0.5773503   0.0000000), wk =   0.0234375
        k(   10) = (   0.0625000   0.1082532   0.0000000), wk =   0.0468750
        k(   11) = (   0.0625000   0.1804220   0.0000000), wk =   0.0937500
        k(   12) = (   0.0625000   0.2525907   0.0000000), wk =   0.0937500
        k(   13) = (   0.0625000   0.3247595   0.0000000), wk =   0.0937500
        k(   14) = (   0.0625000   0.3969283   0.0000000), wk =   0.0937500
        k(   15) = (   0.0625000   0.4690971   0.0000000), wk =   0.0937500
        k(   16) = (   0.0625000   0.5412659   0.0000000), wk =   0.0937500
        k(   17) = (   0.1250000   0.2165064   0.0000000), wk =   0.0468750
        k(   18) = (   0.1250000   0.2886751   0.0000000), wk =   0.0937500
        k(   19) = (   0.1250000   0.3608439   0.0000000), wk =   0.0937500
        k(   20) = (   0.1250000   0.4330127   0.0000000), wk =   0.0937500
        k(   21) = (   0.1250000   0.5051815   0.0000000), wk =   0.0937500
        k(   22) = (   0.1250000   0.5773503   0.0000000), wk =   0.0468750
        k(   23) = (   0.1875000   0.3247595   0.0000000), wk =   0.0468750
        k(   24) = (   0.1875000   0.3969283   0.0000000), wk =   0.0937500
        k(   25) = (   0.1875000   0.4690971   0.0000000), wk =   0.0937500
        k(   26) = (   0.1875000   0.5412659   0.0000000), wk =   0.0937500
        k(   27) = (   0.2500000   0.4330127   0.0000000), wk =   0.0468750
        k(   28) = (   0.2500000   0.5051815   0.0000000), wk =   0.0937500
        k(   29) = (   0.2500000   0.5773503   0.0000000), wk =   0.0468750
        k(   30) = (   0.3125000   0.5412659   0.0000000), wk =   0.0468750

     Dense  grid:   858263 G-vectors     FFT dimensions: (  50,  50, 768)

     Smooth grid:   304337 G-vectors     FFT dimensions: (  36,  36, 540)

     Estimated max dynamical RAM per process >     350.14 MB

     Estimated total dynamical RAM >       4.10 GB

     Initial potential from superposition of free atoms

     starting charge      91.9986, renormalised to      92.0000

     negative rho (up, down):  1.506E-04 0.000E+00


     %%%%%%%%%%%%%%%%%%%%%%%%%%%%%%%%%%%%%%%%%%%%%%%%%%%%%%%%%%%%%%%%%%%%%%%%
     %                                                                      %
     % You are using vdW-DF, which was implemented by the Thonhauser group. %
     % Please cite the following two papers that made this development      %
     % possible and the two reviews that describe the various versions:     %
     %                                                                      %
     %   T. Thonhauser et al., PRL 115, 136402 (2015).                      %
     %   T. Thonhauser et al., PRB 76, 125112 (2007).                       %
     %   K. Berland et al., Rep. Prog. Phys. 78, 066501 (2015).             %
     %   D.C. Langreth et al., J. Phys.: Condens. Matter 21, 084203 (2009). %
     %                                                                      %
     % If you are calculating stress with vdW-DF, please also cite:         %
     %                                                                      %
     %   R. Sabatini et al., J. Phys.: Condens. Matter 24, 424209 (2012).   %
     %                                                                      %
     %%%%%%%%%%%%%%%%%%%%%%%%%%%%%%%%%%%%%%%%%%%%%%%%%%%%%%%%%%%%%%%%%%%%%%%%

     %%%%%%%%%%%%%%%%%%%%%%%%%%%%%%%%%%%%%%%%%%%%%%%%%%%%%%%%%%%%%%%%%%%%%%%%
     %                                                                      %
     %  vdW-DF NEWS:                                                        %
     %                                                                      %
     %  * vdW-DF3 is now available. DOI: 10.1021/acs.jctc.0c00471           %
     %    use with input_dft = 'vdW-DF3-opt1' or 'vdW-DF3-opt2'             %
     %                                                                      %
     %  * Unscreened and range-separated hybrid vdW-DF-cx functionals       %
     %    DOI: 10.1063/1.4986522 and 10.1088/1361-648X/ac2ad2               %
     %    use with input_dft = 'vdW-DF-cx0'    and 'vdW-DF-ahcx'            %
     %  * Unscreened and range-separated hybrid vdW-DF2-b86r functionals    %
     %    DOI: 10.1063/1.4986522 and DOI: 10.1103/PhysRevX.12.041003        %
     %    use with input_dft = 'vdW-DF2-br0' and 'vdW-DF2-ahbr'             %
     %                                                                      %
     %%%%%%%%%%%%%%%%%%%%%%%%%%%%%%%%%%%%%%%%%%%%%%%%%%%%%%%%%%%%%%%%%%%%%%%%


     Starting wfcs are   62 randomized atomic wfcs
     Checking if some PAW data can be deallocated... 

     total cpu time spent up to now is       29.0 secs

     per-process dynamical memory:   142.9 Mb

     Self-consistent Calculation

     iteration #  1     ecut=    80.00 Ry     beta= 0.10
     Davidson diagonalization with overlap
     ethr =  1.00E-02,  avg # of iterations =  4.0

     Threshold (ethr) on eigenvalues was too large:
     Diagonalizing with lowered threshold

     Davidson diagonalization with overlap
     ethr =  1.09E-04,  avg # of iterations =  6.6

     negative rho (up, down):  7.245E-05 0.000E+00

     total cpu time spent up to now is      135.6 secs

     total energy              =   -3113.99236350 Ry
     estimated scf accuracy    <       0.12900802 Ry

     iteration #  2     ecut=    80.00 Ry     beta= 0.10
     Davidson diagonalization with overlap
     ethr =  1.40E-04,  avg # of iterations =  1.0

     negative rho (up, down):  1.324E-05 0.000E+00

     total cpu time spent up to now is      173.7 secs

     total energy              =   -3113.94879958 Ry
     estimated scf accuracy    <       0.11791869 Ry

     iteration #  3     ecut=    80.00 Ry     beta= 0.10
     Davidson diagonalization with overlap
     ethr =  1.28E-04,  avg # of iterations =  4.1

     negative rho (up, down):  3.404E-06 0.000E+00

     total cpu time spent up to now is      225.2 secs

     total energy              =   -3113.96263504 Ry
     estimated scf accuracy    <       0.02446691 Ry

     iteration #  4     ecut=    80.00 Ry     beta= 0.10
     Davidson diagonalization with overlap
     ethr =  2.66E-05,  avg # of iterations =  2.5

     negative rho (up, down):  6.574E-08 0.000E+00

     total cpu time spent up to now is      268.2 secs

     total energy              =   -3113.95785942 Ry
     estimated scf accuracy    <       0.02147202 Ry

     iteration #  5     ecut=    80.00 Ry     beta= 0.10
     Davidson diagonalization with overlap
     ethr =  2.33E-05,  avg # of iterations =  4.1

     negative rho (up, down):  5.803E-08 0.000E+00

     total cpu time spent up to now is      317.4 secs

     total energy              =   -3113.95972087 Ry
     estimated scf accuracy    <       0.00315910 Ry

     iteration #  6     ecut=    80.00 Ry     beta= 0.10
     Davidson diagonalization with overlap
     ethr =  3.43E-06,  avg # of iterations =  4.3

     negative rho (up, down):  5.607E-08 0.000E+00

     total cpu time spent up to now is      361.6 secs

     total energy              =   -3113.95881587 Ry
     estimated scf accuracy    <       0.00297089 Ry

     iteration #  7     ecut=    80.00 Ry     beta= 0.10
     Davidson diagonalization with overlap
     ethr =  3.23E-06,  avg # of iterations =  3.6

     negative rho (up, down):  1.547E-07 0.000E+00

     total cpu time spent up to now is      411.3 secs

     total energy              =   -3113.95830208 Ry
     estimated scf accuracy    <       0.00369265 Ry

     iteration #  8     ecut=    80.00 Ry     beta= 0.10
     Davidson diagonalization with overlap
     c_bands:  1 eigenvalues not converged
     c_bands:  1 eigenvalues not converged
     ethr =  3.23E-06,  avg # of iterations =  6.4

     negative rho (up, down):  1.100E-08 0.000E+00

     total cpu time spent up to now is      461.2 secs

     total energy              =   -3113.95842989 Ry
     estimated scf accuracy    <       0.00080862 Ry

     iteration #  9     ecut=    80.00 Ry     beta= 0.10
     Davidson diagonalization with overlap
     ethr =  8.79E-07,  avg # of iterations =  3.6

     negative rho (up, down):  1.781E-08 0.000E+00

     total cpu time spent up to now is      511.2 secs

     total energy              =   -3113.95839444 Ry
     estimated scf accuracy    <       0.00073784 Ry

     iteration # 10     ecut=    80.00 Ry     beta= 0.10
     Davidson diagonalization with overlap
     ethr =  8.02E-07,  avg # of iterations =  3.5

     total cpu time spent up to now is      556.2 secs

     total energy              =   -3113.95846206 Ry
     estimated scf accuracy    <       0.00036184 Ry

     iteration # 11     ecut=    80.00 Ry     beta= 0.10
     Davidson diagonalization with overlap
     ethr =  3.93E-07,  avg # of iterations =  4.8

     total cpu time spent up to now is      601.7 secs

     total energy              =   -3113.95848182 Ry
     estimated scf accuracy    <       0.00029709 Ry

     iteration # 12     ecut=    80.00 Ry     beta= 0.10
     Davidson diagonalization with overlap
     ethr =  3.23E-07,  avg # of iterations =  1.7

     negative rho (up, down):  5.957E-04 0.000E+00

     total cpu time spent up to now is      646.0 secs

     total energy              =   -3113.95848763 Ry
     estimated scf accuracy    <       0.00030643 Ry

     iteration # 13     ecut=    80.00 Ry     beta= 0.10
     Davidson diagonalization with overlap
     ethr =  3.23E-07,  avg # of iterations =  6.4

     negative rho (up, down):  1.170E-03 0.000E+00

     total cpu time spent up to now is      694.8 secs

     total energy              =   -3113.95848336 Ry
     estimated scf accuracy    <       0.00028254 Ry

     iteration # 14     ecut=    80.00 Ry     beta= 0.10
     Davidson diagonalization with overlap
     ethr =  3.07E-07,  avg # of iterations =  1.5

     negative rho (up, down):  7.811E-04 0.000E+00

     total cpu time spent up to now is      737.7 secs

     total energy              =   -3113.95842064 Ry
     estimated scf accuracy    <       0.00026833 Ry

     iteration # 15     ecut=    80.00 Ry     beta= 0.10
     Davidson diagonalization with overlap
     ethr =  2.92E-07,  avg # of iterations =  4.8

     negative rho (up, down):  2.713E-03 0.000E+00

     total cpu time spent up to now is      787.2 secs

     total energy              =   -3113.95841008 Ry
     estimated scf accuracy    <       0.00030218 Ry

     iteration # 16     ecut=    80.00 Ry     beta= 0.10
     Davidson diagonalization with overlap
     ethr =  2.92E-07,  avg # of iterations =  1.8

     negative rho (up, down):  3.821E-03 0.000E+00

     total cpu time spent up to now is      832.5 secs

     total energy              =   -3113.95834329 Ry
     estimated scf accuracy    <       0.00028747 Ry

     iteration # 17     ecut=    80.00 Ry     beta= 0.10
     Davidson diagonalization with overlap
     ethr =  2.92E-07,  avg # of iterations =  2.3

     negative rho (up, down):  4.395E-03 0.000E+00

     total cpu time spent up to now is      882.9 secs

     total energy              =   -3113.95839278 Ry
     estimated scf accuracy    <       0.00014813 Ry

     iteration # 18     ecut=    80.00 Ry     beta= 0.10
     Davidson diagonalization with overlap
     ethr =  1.61E-07,  avg # of iterations =  1.0

     negative rho (up, down):  4.252E-03 0.000E+00

     total cpu time spent up to now is      921.5 secs

     total energy              =   -3113.95840259 Ry
     estimated scf accuracy    <       0.00013950 Ry

     iteration # 19     ecut=    80.00 Ry     beta= 0.10
     Davidson diagonalization with overlap
     ethr =  1.52E-07,  avg # of iterations =  2.9

     negative rho (up, down):  2.185E-03 0.000E+00

     total cpu time spent up to now is      963.9 secs

     total energy              =   -3113.95834592 Ry
     estimated scf accuracy    <       0.00007922 Ry

     iteration # 20     ecut=    80.00 Ry     beta= 0.10
     Davidson diagonalization with overlap
     ethr =  8.61E-08,  avg # of iterations =  5.2

     negative rho (up, down):  1.972E-03 0.000E+00

     total cpu time spent up to now is     1008.9 secs

     total energy              =   -3113.95836001 Ry
     estimated scf accuracy    <       0.00003089 Ry

     iteration # 21     ecut=    80.00 Ry     beta= 0.10
     Davidson diagonalization with overlap
     ethr =  3.36E-08,  avg # of iterations =  6.0

     negative rho (up, down):  1.150E-03 0.000E+00

     total cpu time spent up to now is     1058.1 secs

     total energy              =   -3113.95838982 Ry
     estimated scf accuracy    <       0.00001226 Ry

     iteration # 22     ecut=    80.00 Ry     beta= 0.10
     Davidson diagonalization with overlap
     ethr =  1.33E-08,  avg # of iterations =  6.0

     negative rho (up, down):  1.258E-03 0.000E+00

     total cpu time spent up to now is     1110.8 secs

     total energy              =   -3113.95838989 Ry
     estimated scf accuracy    <       0.00001815 Ry

     iteration # 23     ecut=    80.00 Ry     beta= 0.10
     Davidson diagonalization with overlap
     ethr =  1.33E-08,  avg # of iterations =  2.0

     negative rho (up, down):  8.415E-04 0.000E+00

     total cpu time spent up to now is     1158.9 secs

     total energy              =   -3113.95839423 Ry
     estimated scf accuracy    <       0.00000589 Ry

     iteration # 24     ecut=    80.00 Ry     beta= 0.10
     Davidson diagonalization with overlap
     ethr =  6.40E-09,  avg # of iterations =  2.0

     negative rho (up, down):  2.787E-04 0.000E+00

     total cpu time spent up to now is     1208.8 secs

     total energy              =   -3113.95839458 Ry
     estimated scf accuracy    <       0.00000719 Ry

     iteration # 25     ecut=    80.00 Ry     beta= 0.10
     Davidson diagonalization with overlap
     ethr =  6.40E-09,  avg # of iterations =  2.0

     negative rho (up, down):  2.243E-04 0.000E+00

     total cpu time spent up to now is     1260.9 secs

     total energy              =   -3113.95839559 Ry
     estimated scf accuracy    <       0.00000778 Ry

     iteration # 26     ecut=    80.00 Ry     beta= 0.10
     Davidson diagonalization with overlap
     ethr =  6.40E-09,  avg # of iterations =  1.0

     negative rho (up, down):  2.394E-04 0.000E+00

     total cpu time spent up to now is     1302.4 secs

     total energy              =   -3113.95839363 Ry
     estimated scf accuracy    <       0.00000351 Ry

     iteration # 27     ecut=    80.00 Ry     beta= 0.10
     Davidson diagonalization with overlap
     ethr =  3.82E-09,  avg # of iterations =  4.0

     negative rho (up, down):  2.361E-04 0.000E+00

     total cpu time spent up to now is     1352.7 secs

     total energy              =   -3113.95839687 Ry
     estimated scf accuracy    <       0.00000094 Ry

     iteration # 28     ecut=    80.00 Ry     beta= 0.10
     Davidson diagonalization with overlap
     ethr =  1.02E-09,  avg # of iterations =  2.4

     negative rho (up, down):  2.715E-04 0.000E+00

     total cpu time spent up to now is     1406.4 secs

     total energy              =   -3113.95839797 Ry
     estimated scf accuracy    <       0.00000052 Ry

     iteration # 29     ecut=    80.00 Ry     beta= 0.10
     Davidson diagonalization with overlap
     ethr =  5.62E-10,  avg # of iterations =  2.1

     negative rho (up, down):  2.349E-04 0.000E+00

     total cpu time spent up to now is     1457.3 secs

     total energy              =   -3113.95839850 Ry
     estimated scf accuracy    <       0.00000016 Ry

     iteration # 30     ecut=    80.00 Ry     beta= 0.10
     Davidson diagonalization with overlap
     ethr =  1.74E-10,  avg # of iterations =  3.1

     negative rho (up, down):  1.652E-04 0.000E+00

     total cpu time spent up to now is     1513.0 secs

     total energy              =   -3113.95839889 Ry
     estimated scf accuracy    <       0.00000049 Ry

     iteration # 31     ecut=    80.00 Ry     beta= 0.10
     Davidson diagonalization with overlap
     ethr =  1.74E-10,  avg # of iterations =  2.7

     negative rho (up, down):  1.485E-04 0.000E+00

     total cpu time spent up to now is     1566.5 secs

     End of self-consistent calculation

          k = 0.0000 0.0000 0.0000 ( 38015 PWs)   bands (ev):

   -74.8816 -74.8813 -48.1472 -48.1472 -48.1468 -48.1468 -48.1466 -48.1466
   -48.1457 -48.1457 -48.1163 -48.1163 -48.1161 -48.1161 -48.1158 -48.1158
   -48.1150 -48.1150 -48.1023 -48.1019 -48.1016 -48.1009 -39.0746 -39.0742
   -39.0396 -39.0396 -39.0389 -39.0389 -15.5118 -15.5088 -14.4411 -14.4399
    -6.9736  -6.9718  -3.3527  -3.3527  -3.3481  -3.3481  -3.3301  -3.3293
    -1.3225  -1.3205  -0.6887  -0.6886  -0.6865  -0.6865   0.2069   0.2069
     0.2090   0.2090   3.0921   3.4092   3.4093   3.4111   3.4111

          k = 0.0000 0.0722 0.0000 ( 37975 PWs)   bands (ev):

   -74.8812 -74.8809 -48.1472 -48.1471 -48.1468 -48.1466 -48.1466 -48.1464
   -48.1457 -48.1455 -48.1164 -48.1164 -48.1162 -48.1161 -48.1158 -48.1158
   -48.1151 -48.1150 -48.1022 -48.1018 -48.1015 -48.1008 -39.0728 -39.0724
   -39.0486 -39.0479 -39.0417 -39.0410 -15.4507 -15.4477 -14.4131 -14.4119
    -6.8911  -6.8894  -3.8399  -3.8370  -3.3180  -3.3134  -2.9208  -2.9192
    -1.3963  -1.3952  -0.9752  -0.9732  -0.9178  -0.9154   0.1950   0.1967
     0.4084   0.4103   3.0336   3.0724   3.2458   3.3676   3.3694

          k = 0.0000 0.1443 0.0000 ( 37895 PWs)   bands (ev):

   -74.8800 -74.8798 -48.1471 -48.1468 -48.1465 -48.1465 -48.1461 -48.1459
   -48.1457 -48.1450 -48.1167 -48.1165 -48.1163 -48.1161 -48.1161 -48.1159
   -48.1152 -48.1150 -48.1019 -48.1015 -48.1013 -48.1005 -39.0745 -39.0738
   -39.0676 -39.0671 -39.0477 -39.0470 -15.2716 -15.2688 -14.3312 -14.3298
    -6.6514  -6.6497  -4.3451  -4.3418  -3.2350  -3.2304  -2.6981  -2.6970
    -2.0369  -2.0350  -1.3015  -1.2988  -1.1895  -1.1885   0.1967   0.1985
     0.7126   0.7138   2.4843   2.5020   3.2914   3.2930   3.5135

          k = 0.0000 0.2165 0.0000 ( 37851 PWs)   bands (ev):

   -74.8783 -74.8781 -48.1471 -48.1469 -48.1465 -48.1457 -48.1457 -48.1453
   -48.1451 -48.1442 -48.1171 -48.1167 -48.1165 -48.1164 -48.1161 -48.1160
   -48.1155 -48.1151 -48.1015 -48.1012 -48.1009 -48.1002 -39.1128 -39.1121
   -39.0599 -39.0595 -39.0568 -39.0560 -14.9883 -14.9855 -14.2017 -14.2002
    -6.2838  -6.2820  -4.7977  -4.7943  -3.2961  -3.2937  -3.1720  -3.1675
    -2.4444  -2.4438  -1.5941  -1.5913  -1.3283  -1.3277   0.2353   0.2374
     0.9154   0.9163   2.1768   2.1914   3.2650   3.2665   3.8987

          k = 0.0000 0.2887 0.0000 ( 37919 PWs)   bands (ev):

   -74.8763 -74.8760 -48.1471 -48.1469 -48.1465 -48.1457 -48.1449 -48.1445
   -48.1442 -48.1433 -48.1175 -48.1169 -48.1168 -48.1167 -48.1162 -48.1161
   -48.1157 -48.1151 -48.1011 -48.1007 -48.1005 -48.0997 -39.1577 -39.1569
   -39.0674 -39.0667 -39.0508 -39.0504 -14.6275 -14.6248 -14.0336 -14.0319
    -5.8930  -5.8910  -5.1143  -5.1111  -4.3541  -4.3514  -3.2176  -3.2133
    -2.6160  -2.6158  -1.6919  -1.6889  -1.6329  -1.6323   0.3936   0.3956
     1.0203   1.0210   2.3172   2.3320   3.3102   3.3117   4.3839

          k = 0.0000 0.3608 0.0000 ( 37933 PWs)   bands (ev):

   -74.8743 -74.8740 -48.1473 -48.1468 -48.1466 -48.1457 -48.1440 -48.1436
   -48.1433 -48.1425 -48.1180 -48.1173 -48.1170 -48.1169 -48.1163 -48.1162
   -48.1160 -48.1152 -48.1007 -48.1003 -48.1000 -48.0993 -39.2022 -39.2015
   -39.0780 -39.0773 -39.0416 -39.0412 -14.2429 -14.2403 -13.8286 -13.8266
    -5.9045  -5.9017  -5.3307  -5.3282  -4.9131  -4.9107  -3.3667  -3.3626
    -2.9629  -2.9628  -1.9373  -1.9367  -1.6315  -1.6285   0.7335   0.7350
     1.1137   1.1146   2.7617   2.7762   3.3840   3.3858   4.9065

          k = 0.0000 0.4330 0.0000 ( 37998 PWs)   bands (ev):

   -74.8726 -74.8723 -48.1474 -48.1467 -48.1467 -48.1456 -48.1432 -48.1429
   -48.1426 -48.1417 -48.1184 -48.1176 -48.1172 -48.1171 -48.1165 -48.1162
   -48.1162 -48.1152 -48.1003 -48.0999 -48.0997 -48.0989 -39.2397 -39.2389
   -39.0869 -39.0862 -39.0339 -39.0335 -13.9384 -13.9357 -13.5656 -13.5636
    -6.5190  -6.5161  -5.6000  -5.5976  -4.6906  -4.6889  -3.5313  -3.5273
    -3.2561  -3.2556  -2.1246  -2.1241  -1.5362  -1.5334   1.1992   1.2001
     1.2527   1.2539   3.2683   3.2785   3.4458   3.4478   4.5918

          k = 0.0000 0.5052 0.0000 ( 38048 PWs)   bands (ev):

   -74.8715 -74.8712 -48.1475 -48.1468 -48.1466 -48.1456 -48.1427 -48.1424
   -48.1421 -48.1413 -48.1186 -48.1179 -48.1173 -48.1172 -48.1166 -48.1163
   -48.1162 -48.1153 -48.1001 -48.0997 -48.0994 -48.0987 -39.2646 -39.2638
   -39.0929 -39.0922 -39.0287 -39.0283 -13.7768 -13.7740 -13.2973 -13.2953
    -7.0830  -7.0800  -5.6176  -5.6157  -4.7663  -4.7647  -3.6480  -3.6441
    -3.1891  -3.1881  -2.2427  -2.2423  -1.4749  -1.4724   1.4021   1.4038
     1.6707   1.6712   3.4610   3.4634   3.4821   3.4843   4.5512

          k = 0.0000-0.5774 0.0000 ( 38024 PWs)   bands (ev):

   -74.8711 -74.8708 -48.1476 -48.1468 -48.1466 -48.1455 -48.1425 -48.1423
   -48.1419 -48.1411 -48.1187 -48.1180 -48.1173 -48.1173 -48.1166 -48.1163
   -48.1163 -48.1153 -48.1000 -48.0996 -48.0993 -48.0986 -39.2733 -39.2725
   -39.0950 -39.0943 -39.0268 -39.0265 -13.7270 -13.7242 -13.1829 -13.1809
    -7.2958  -7.2927  -5.5823  -5.5808  -4.8885  -4.8867  -3.6894  -3.6855
    -3.0733  -3.0722  -2.2956  -2.2954  -1.4559  -1.4535   1.4688   1.4706
     1.8936   1.8939   3.4815   3.4824   3.4937   3.4959   4.2166

          k = 0.0625 0.1083 0.0000 ( 37895 PWs)   bands (ev):

   -74.8804 -74.8801 -48.1471 -48.1468 -48.1467 -48.1465 -48.1463 -48.1461
   -48.1457 -48.1451 -48.1166 -48.1165 -48.1162 -48.1161 -48.1160 -48.1159
   -48.1152 -48.1150 -48.1020 -48.1016 -48.1014 -48.1006 -39.0694 -39.0689
   -39.0658 -39.0651 -39.0460 -39.0453 -15.3306 -15.3277 -14.3581 -14.3568
    -6.7297  -6.7279  -4.2104  -4.2072  -3.2669  -3.2623  -2.7199  -2.7187
    -1.7773  -1.7757  -1.3103  -1.3077  -1.0997  -1.0986   0.2652   0.2670
     0.5609   0.5623   2.6999   2.7214   3.2228   3.2305   3.4400

          k = 0.0625 0.1804 0.0000 ( 37885 PWs)   bands (ev):

   -74.8790 -74.8787 -48.1470 -48.1469 -48.1465 -48.1461 -48.1457 -48.1457
   -48.1454 -48.1445 -48.1169 -48.1166 -48.1163 -48.1163 -48.1161 -48.1160
   -48.1153 -48.1151 -48.1017 -48.1013 -48.1011 -48.1003 -39.0971 -39.0964
   -39.0630 -39.0626 -39.0542 -39.0534 -15.0990 -15.0961 -14.2526 -14.2511
    -6.4218  -6.4200  -4.6425  -4.6391  -3.2584  -3.2540  -2.8012  -2.7996
    -2.4655  -2.4639  -1.6531  -1.6507  -1.1335  -1.1327   0.3264   0.3282
     0.6678   0.6687   2.4199   2.4365   3.0799   3.0829   3.7578

          k = 0.0625 0.2526 0.0000 ( 37916 PWs)   bands (ev):

   -74.8771 -74.8769 -48.1470 -48.1469 -48.1465 -48.1456 -48.1453 -48.1449
   -48.1446 -48.1437 -48.1174 -48.1168 -48.1167 -48.1166 -48.1162 -48.1161
   -48.1156 -48.1152 -48.1013 -48.1009 -48.1007 -48.0999 -39.1378 -39.1371
   -39.0652 -39.0645 -39.0543 -39.0539 -14.7750 -14.7722 -14.1047 -14.1031
    -6.0161  -6.0143  -5.0160  -5.0126  -3.8991  -3.8963  -3.1969  -3.1933
    -2.5958  -2.5947  -1.9137  -1.9117  -1.2038  -1.2030   0.2834   0.2848
     0.8758   0.8770   2.3549   2.3679   3.0891   3.0945   4.1897

          k = 0.0625 0.3248 0.0000 ( 37964 PWs)   bands (ev):

   -74.8751 -74.8748 -48.1471 -48.1467 -48.1465 -48.1456 -48.1444 -48.1440
   -48.1438 -48.1429 -48.1178 -48.1171 -48.1169 -48.1168 -48.1163 -48.1162
   -48.1158 -48.1152 -48.1008 -48.1005 -48.1002 -48.0995 -39.1815 -39.1807
   -39.0768 -39.0761 -39.0453 -39.0448 -14.3954 -14.3928 -13.9225 -13.9206
    -5.7449  -5.7425  -5.1857  -5.1831  -4.8223  -4.8195  -3.4298  -3.4265
    -2.7096  -2.7088  -2.2431  -2.2412  -1.2617  -1.2603   0.3973   0.3984
     1.1315   1.1324   2.5191   2.5289   3.2272   3.2355   4.7168

          k = 0.0625 0.3969 0.0000 ( 37981 PWs)   bands (ev):

   -74.8733 -74.8730 -48.1473 -48.1466 -48.1466 -48.1455 -48.1436 -48.1433
   -48.1430 -48.1421 -48.1182 -48.1175 -48.1172 -48.1170 -48.1164 -48.1163
   -48.1161 -48.1153 -48.1004 -48.1001 -48.0998 -48.0991 -39.2215 -39.2207
   -39.0875 -39.0868 -39.0368 -39.0364 -14.0379 -14.0353 -13.6962 -13.6942
    -6.1320  -6.1292  -5.5088  -5.5062  -4.7656  -4.7636  -3.6788  -3.6758
    -2.9767  -2.9757  -2.4716  -2.4698  -1.2563  -1.2547   0.6901   0.6907
     1.4010   1.4018   2.8052   2.8102   3.4504   3.4604   4.9599

          k = 0.0625 0.4691 0.0000 ( 38057 PWs)   bands (ev):

   -74.8718 -74.8716 -48.1474 -48.1466 -48.1465 -48.1455 -48.1430 -48.1427
   -48.1424 -48.1415 -48.1185 -48.1178 -48.1174 -48.1171 -48.1166 -48.1163
   -48.1162 -48.1153 -48.1001 -48.0998 -48.0995 -48.0988 -39.2520 -39.2512
   -39.0957 -39.0950 -39.0304 -39.0300 -13.8102 -13.8075 -13.4163 -13.4143
    -6.7845  -6.7815  -5.6126  -5.6104  -4.6513  -4.6496  -3.7929  -3.7897
    -3.1446  -3.1433  -2.5682  -2.5669  -1.2615  -1.2600   1.0659   1.0666
     1.6731   1.6739   3.0281   3.0302   3.6236   3.6282   4.6955

          k = 0.0625 0.5413 0.0000 ( 38034 PWs)   bands (ev):

   -74.8711 -74.8708 -48.1474 -48.1467 -48.1464 -48.1454 -48.1426 -48.1424
   -48.1421 -48.1412 -48.1187 -48.1179 -48.1175 -48.1171 -48.1167 -48.1163
   -48.1163 -48.1154 -48.1000 -48.0996 -48.0994 -48.0986 -39.2684 -39.2676
   -39.1001 -39.0994 -39.0269 -39.0265 -13.7106 -13.7078 -13.2099 -13.2079
    -7.1837  -7.1806  -5.5870  -5.5853  -4.8093  -4.8076  -3.8026  -3.7991
    -3.0676  -3.0663  -2.6186  -2.6175  -1.2885  -1.2870   1.3709   1.3723
     1.8456   1.8458   3.1819   3.1836   3.5391   3.5404   4.5448

          k = 0.1250 0.2165 0.0000 ( 37933 PWs)   bands (ev):

   -74.8774 -74.8771 -48.1470 -48.1468 -48.1464 -48.1456 -48.1455 -48.1451
   -48.1448 -48.1439 -48.1173 -48.1167 -48.1166 -48.1164 -48.1163 -48.1161
   -48.1155 -48.1152 -48.1013 -48.1010 -48.1007 -48.1000 -39.1295 -39.1288
   -39.0659 -39.0652 -39.0554 -39.0550 -14.8255 -14.8227 -14.1291 -14.1275
    -6.0607  -6.0589  -4.9679  -4.9644  -3.7333  -3.7299  -2.9742  -2.9729
    -2.8958  -2.8923  -1.9095  -1.9079  -1.0327  -1.0320   0.2822   0.2828
     0.7085   0.7106   2.6826   2.6955   2.6956   2.7040   4.1273

          k = 0.1250 0.2887 0.0000 ( 37936 PWs)   bands (ev):

   -74.8755 -74.8753 -48.1470 -48.1466 -48.1463 -48.1455 -48.1447 -48.1444
   -48.1441 -48.1432 -48.1177 -48.1170 -48.1168 -48.1166 -48.1164 -48.1162
   -48.1157 -48.1153 -48.1009 -48.1006 -48.1003 -48.0996 -39.1668 -39.1661
   -39.0797 -39.0789 -39.0472 -39.0468 -14.4764 -14.4738 -13.9710 -13.9691
    -5.6456  -5.6438  -5.2256  -5.2223  -4.5413  -4.5383  -3.4359  -3.4337
    -2.9722  -2.9693  -2.1942  -2.1932  -0.9207  -0.9199   0.1012   0.1019
     1.0911   1.0927   2.4004   2.4026   3.0475   3.0669   4.6053

          k = 0.1250 0.3608 0.0000 ( 38000 PWs)   bands (ev):

   -74.8737 -74.8734 -48.1470 -48.1464 -48.1463 -48.1453 -48.1440 -48.1437
   -48.1434 -48.1425 -48.1181 -48.1174 -48.1170 -48.1169 -48.1165 -48.1164
   -48.1159 -48.1154 -48.1005 -48.1002 -48.0999 -48.0992 -39.2035 -39.2028
   -39.0938 -39.0931 -39.0388 -39.0384 -14.1015 -14.0989 -13.7833 -13.7812
    -5.7175  -5.7147  -5.3668  -5.3641  -4.8981  -4.8958  -3.8238  -3.8213
    -3.0759  -3.0735  -2.6299  -2.6289  -0.8431  -0.8422   0.2118   0.2124
     1.4773   1.4783   2.3205   2.3223   3.4185   3.4353   5.1623

          k = 0.1250 0.4330 0.0000 ( 38048 PWs)   bands (ev):

   -74.8721 -74.8719 -48.1470 -48.1463 -48.1462 -48.1452 -48.1434 -48.1431
   -48.1428 -48.1420 -48.1184 -48.1176 -48.1173 -48.1169 -48.1166 -48.1165
   -48.1161 -48.1155 -48.1002 -48.0999 -48.0996 -48.0989 -39.2344 -39.2336
   -39.1059 -39.1051 -39.0317 -39.0313 -13.8086 -13.8060 -13.5391 -13.5369
    -6.3503  -6.3474  -5.5591  -5.5565  -4.5543  -4.5525  -4.0740  -4.0714
    -3.2055  -3.2034  -3.0001  -2.9990  -0.8638  -0.8631   0.5646   0.5650
     1.7629   1.7638   2.4246   2.4261   3.7207   3.7300   5.1394

          k = 0.1250 0.5052 0.0000 ( 38027 PWs)   bands (ev):

   -74.8711 -74.8708 -48.1470 -48.1463 -48.1461 -48.1451 -48.1430 -48.1428
   -48.1424 -48.1416 -48.1185 -48.1178 -48.1176 -48.1170 -48.1168 -48.1165
   -48.1161 -48.1155 -48.1000 -48.0996 -48.0994 -48.0986 -39.2549 -39.2541
   -39.1139 -39.1132 -39.0269 -39.0265 -13.6626 -13.6599 -13.2827 -13.2806
    -6.8709  -6.8679  -5.5824  -5.5802  -4.6160  -4.6142  -4.0400  -4.0372
    -3.2947  -3.2927  -3.1040  -3.1027  -0.9520  -0.9515   1.0189   1.0196
     1.8441   1.8450   2.6213   2.6226   3.7177   3.7202   5.0464

          k = 0.1250 0.5774 0.0000 ( 37968 PWs)   bands (ev):

   -74.8707 -74.8704 -48.1470 -48.1463 -48.1460 -48.1450 -48.1428 -48.1426
   -48.1422 -48.1414 -48.1186 -48.1178 -48.1176 -48.1170 -48.1168 -48.1165
   -48.1162 -48.1155 -48.0999 -48.0995 -48.0993 -48.0985 -39.2621 -39.2613
   -39.1168 -39.1161 -39.0252 -39.0248 -13.6179 -13.6151 -13.1753 -13.1732
    -7.0639  -7.0610  -5.5662  -5.5643  -4.7217  -4.7199  -4.0185  -4.0156
    -3.3145  -3.3127  -3.0725  -3.0711  -1.0038  -1.0033   1.3123   1.3134
     1.7532   1.7537   2.7577   2.7591   3.5875   3.5889   4.9895

          k = 0.1875 0.3248 0.0000 ( 37987 PWs)   bands (ev):

   -74.8738 -74.8736 -48.1468 -48.1463 -48.1461 -48.1452 -48.1442 -48.1439
   -48.1436 -48.1427 -48.1181 -48.1173 -48.1169 -48.1168 -48.1167 -48.1163
   -48.1159 -48.1155 -48.1006 -48.1002 -48.1000 -48.0992 -39.1954 -39.1947
   -39.0978 -39.0971 -39.0395 -39.0391 -14.1234 -14.1209 -13.8136 -13.8115
    -5.4138  -5.4108  -5.3925  -5.3899  -4.9752  -4.9726  -3.8253  -3.8235
    -3.3825  -3.3793  -2.5086  -2.5078  -0.5899  -0.5891  -0.0570  -0.0565
     1.4838   1.4850   2.1271   2.1279   3.4097   3.4288   5.1216

          k = 0.1875 0.3969 0.0000 ( 38014 PWs)   bands (ev):

   -74.8723 -74.8720 -48.1467 -48.1460 -48.1459 -48.1449 -48.1438 -48.1435
   -48.1432 -48.1423 -48.1183 -48.1176 -48.1171 -48.1169 -48.1168 -48.1165
   -48.1160 -48.1156 -48.1002 -48.0999 -48.0996 -48.0989 -39.2201 -39.2193
   -39.1162 -39.1155 -39.0323 -39.0320 -13.7806 -13.7782 -13.6337 -13.6314
    -5.9327  -5.9300  -5.5123  -5.5093  -4.6012  -4.5993  -4.1785  -4.1765
    -3.7267  -3.7240  -2.9121  -2.9112  -0.4252  -0.4248   0.0874   0.0878
     1.7984   1.7993   2.0424   2.0433   3.7650   3.7774   5.6183

          k = 0.1875 0.4691 0.0000 ( 38010 PWs)   bands (ev):

   -74.8711 -74.8708 -48.1465 -48.1458 -48.1457 -48.1446 -48.1434 -48.1432
   -48.1428 -48.1420 -48.1184 -48.1177 -48.1175 -48.1169 -48.1168 -48.1167
   -48.1161 -48.1157 -48.0999 -48.0997 -48.0994 -48.0986 -39.2380 -39.2373
   -39.1311 -39.1304 -39.0269 -39.0265 -13.5870 -13.5845 -13.3825 -13.3802
    -6.4475  -6.4446  -5.5630  -5.5603  -4.4310  -4.4289  -4.2325  -4.2306
    -3.9783  -3.9759  -3.2099  -3.2088  -0.5205  -0.5203   0.5280   0.5283
     1.8564   1.8573   2.2096   2.2104   3.9059   3.9101   5.3151

          k = 0.1875 0.5413 0.0000 ( 38010 PWs)   bands (ev):

   -74.8704 -74.8701 -48.1465 -48.1457 -48.1455 -48.1445 -48.1432 -48.1430
   -48.1426 -48.1418 -48.1184 -48.1177 -48.1177 -48.1169 -48.1169 -48.1168
   -48.1161 -48.1157 -48.0998 -48.0995 -48.0992 -48.0985 -39.2474 -39.2466
   -39.1395 -39.1388 -39.0240 -39.0236 -13.5085 -13.5059 -13.1988 -13.1966
    -6.7471  -6.7441  -5.5706  -5.5682  -4.5624  -4.5601  -4.1689  -4.1668
    -4.0564  -4.0546  -3.2628  -3.2615  -0.6292  -0.6291   0.9976   0.9980
     1.6251   1.6262   2.4865   2.4874   3.7037   3.7055   5.2919

          k = 0.2500 0.4330 0.0000 ( 38031 PWs)   bands (ev):

   -74.8711 -74.8708 -48.1463 -48.1456 -48.1454 -48.1444 -48.1437 -48.1434
   -48.1431 -48.1422 -48.1184 -48.1176 -48.1173 -48.1171 -48.1168 -48.1167
   -48.1162 -48.1158 -48.0999 -48.0997 -48.0994 -48.0987 -39.2292 -39.2284
   -39.1401 -39.1394 -39.0269 -39.0265 -13.5008 -13.4987 -13.4785 -13.4758
    -6.1936  -6.1908  -5.5600  -5.5570  -4.4128  -4.4107  -4.3782  -4.3762
    -4.1694  -4.1672  -3.2809  -3.2800  -0.0349  -0.0342   0.0133   0.0140
     1.8447   1.8452   2.0839   2.0846   3.9873   3.9925   5.4309

          k = 0.2500 0.5052 0.0000 ( 38019 PWs)   bands (ev):

   -74.8703 -74.8700 -48.1460 -48.1452 -48.1450 -48.1440 -48.1436 -48.1434
   -48.1430 -48.1422 -48.1183 -48.1176 -48.1176 -48.1172 -48.1169 -48.1168
   -48.1163 -48.1158 -48.0998 -48.0995 -48.0992 -48.0985 -39.2314 -39.2306
   -39.1599 -39.1592 -39.0233 -39.0229 -13.4016 -13.3991 -13.2640 -13.2617
    -6.3649  -6.3621  -5.5898  -5.5869  -4.8065  -4.8037  -4.3745  -4.3729
    -4.0447  -4.0431  -3.5439  -3.5428  -0.1470  -0.1468   0.4484   0.4486
     1.5647   1.5658   2.4206   2.4213   3.8682   3.8702   5.1195

          k = 0.2500 0.5774 0.0000 ( 38023 PWs)   bands (ev):

   -74.8700 -74.8697 -48.1458 -48.1451 -48.1448 -48.1438 -48.1436 -48.1435
   -48.1430 -48.1423 -48.1182 -48.1178 -48.1175 -48.1173 -48.1170 -48.1168
   -48.1163 -48.1158 -48.0997 -48.0995 -48.0991 -48.0984 -39.2310 -39.2302
   -39.1681 -39.1674 -39.0220 -39.0216 -13.3663 -13.3638 -13.1841 -13.1818
    -6.4229  -6.4201  -5.5970  -5.5942  -4.9746  -4.9717  -4.2096  -4.2081
    -4.2065  -4.2050  -3.5613  -3.5600  -0.2081  -0.2079   0.8059   0.8062
     1.2280   1.2297   2.7057   2.7063   3.6211   3.6227   5.0438

          k = 0.3125 0.5413 0.0000 ( 38095 PWs)   bands (ev):

   -74.8698 -74.8696 -48.1455 -48.1447 -48.1444 -48.1440 -48.1438 -48.1436
   -48.1432 -48.1426 -48.1181 -48.1177 -48.1176 -48.1174 -48.1171 -48.1168
   -48.1165 -48.1158 -48.0997 -48.0995 -48.0991 -48.0984 -39.2161 -39.2153
   -39.1873 -39.1865 -39.0213 -39.0210 -13.2790 -13.2767 -13.2170 -13.2145
    -6.1125  -6.1098  -5.6266  -5.6236  -5.4127  -5.4098  -4.2195  -4.2182
    -3.9241  -3.9225  -3.8929  -3.8918   0.2322   0.2328   0.4121   0.4123
     1.0799   1.0816   2.9103   2.9112   3.5421   3.5435   4.8467

     the Fermi energy is    -0.0057 ev

!    total energy              =   -3113.95839902 Ry
     total all-electron energy =    -83998.682963 Ry
     estimated scf accuracy    <       0.00000002 Ry
     smearing contrib. (-TS)   =       0.00046612 Ry
     internal energy E=F+TS    =   -3113.95886514 Ry

     The total energy is F=E-TS. E is the sum of the following terms:
     one-electron contribution =  -17917.10244183 Ry
     hartree contribution      =    8945.71762484 Ry
     xc contribution           =    -193.57613406 Ry
     ewald contribution        =    7812.31608023 Ry
     one-center paw contrib.   =   -1761.31399432 Ry

     convergence has been achieved in  31 iterations

     Writing all to output data dir ./tmp/cleave_031/wse2_cleave_031.save/ :
     XML data file, charge density, pseudopotentials, collected wavefunctions

     init_run     :     28.38s CPU     28.76s WALL (       1 calls)
     electrons    :   1511.75s CPU   1537.60s WALL (       1 calls)

     Called by init_run:
     wfcinit      :     15.64s CPU     15.73s WALL (       1 calls)
     potinit      :     11.74s CPU     11.83s WALL (       1 calls)
     hinit0       :      0.10s CPU      0.10s WALL (       1 calls)

     Called by electrons:
     c_bands      :   1277.63s CPU   1290.37s WALL (      32 calls)
     sum_band     :    168.04s CPU    174.69s WALL (      32 calls)
     v_of_rho     :     37.75s CPU     39.28s WALL (      32 calls)
     newd         :     22.28s CPU     27.27s WALL (      32 calls)
     PAW_pot      :      3.24s CPU      3.28s WALL (      32 calls)
     mix_rho      :     14.66s CPU     14.81s WALL (      32 calls)
     vdW_kernel   :     10.83s CPU     10.83s WALL (       1 calls)

     Called by c_bands:
     init_us_2    :      6.77s CPU      6.79s WALL (    1950 calls)
     cegterg      :   1250.93s CPU   1263.09s WALL (     960 calls)

     Called by *egterg:
     cdiaghg      :     15.82s CPU     15.84s WALL (    4212 calls)
     h_psi        :    533.14s CPU    536.99s WALL (    4272 calls)
     s_psi        :    134.16s CPU    134.24s WALL (    4272 calls)
     g_psi        :      1.64s CPU      1.65s WALL (    3282 calls)

     Called by h_psi:
     h_psi:calbec :    188.64s CPU    190.61s WALL (    4272 calls)
     vloc_psi     :    187.18s CPU    188.94s WALL (    4272 calls)
                                        0.00s GPU  (    4272 calls)
     add_vuspsi   :    155.21s CPU    155.31s WALL (    4272 calls)

     General routines
     calbec       :    273.52s CPU    276.35s WALL (    5232 calls)
     fft          :     16.49s CPU     16.70s WALL (    2015 calls)
     ffts         :      5.69s CPU      5.77s WALL (    3754 calls)
     fftw         :    204.92s CPU    206.94s WALL (  289888 calls)
     interpolate  :      0.32s CPU      0.33s WALL (      32 calls)

     Parallel routines

     PWSCF        :  25m40.76s CPU  26m 7.15s WALL


   This run was terminated on:  21:17:32  18Jun2026            

=------------------------------------------------------------------------------=
   JOB DONE.
=------------------------------------------------------------------------------=
Note: The following floating-point exceptions are signalling: IEEE_UNDERFLOW_FLAG IEEE_DENORMAL
Note: The following floating-point exceptions are signalling: IEEE_UNDERFLOW_FLAG IEEE_DENORMAL
Note: The following floating-point exceptions are signalling: IEEE_UNDERFLOW_FLAG IEEE_DENORMAL
Note: The following floating-point exceptions are signalling: IEEE_UNDERFLOW_FLAG IEEE_DENORMAL
Note: The following floating-point exceptions are signalling: IEEE_UNDERFLOW_FLAG IEEE_DENORMAL
Note: The following floating-point exceptions are signalling: IEEE_UNDERFLOW_FLAG IEEE_DENORMAL
Note: The following floating-point exceptions are signalling: IEEE_UNDERFLOW_FLAG IEEE_DENORMAL
Note: The following floating-point exceptions are signalling: IEEE_UNDERFLOW_FLAG IEEE_DENORMAL
Note: The following floating-point exceptions are signalling: IEEE_UNDERFLOW_FLAG IEEE_DENORMAL
Note: The following floating-point exceptions are signalling: IEEE_UNDERFLOW_FLAG IEEE_DENORMAL
Note: The following floating-point exceptions are signalling: IEEE_UNDERFLOW_FLAG IEEE_DENORMAL
Note: The following floating-point exceptions are signalling: IEEE_UNDERFLOW_FLAG IEEE_DENORMAL
