
     Program PWSCF v.7.5 starts on 18Jun2026 at 19:17:56 

     This program is part of the open-source Quantum ESPRESSO suite
     for quantum simulation of materials; please cite
         "P. Giannozzi et al., J. Phys.:Condens. Matter 21 395502 (2009);
         "P. Giannozzi et al., J. Phys.:Condens. Matter 29 465901 (2017);
         "P. Giannozzi et al., J. Chem. Phys. 152 154105 (2020);
          URL http://www.quantum-espresso.org", 
     in publications or presentations arising from this work. More details at
     http://www.quantum-espresso.org/quote

     Parallel version (MPI), running on    12 processors

     MPI processes distributed on     1 nodes
     22281 MiB available memory on the printing compute node when the environment starts

     Waiting for input...
     Reading input from standard input

     Current dimensions of program PWSCF are:
     Max number of different atomic species (ntypx) = 10
     Max number of k-points (npk) =  40000
     Max angular momentum in pseudopotentials (lmaxx) =  4
     file W.pbe-spn-kjpaw_psl.1.0.0.UPF: wavefunction(s)  6S 5P 5D renormalized
     file Se.pbe-dn-kjpaw_psl.1.0.0.UPF: wavefunction(s)  4S 4P 3D renormalized

     IMPORTANT: XC functional enforced from input :
     Exchange-correlation= VDW-DF2-B86R
                           (   1   4  26   0   2   0   0)
     Any further DFT definition will be discarded
     Please, verify this is what you really want


     R & G space division:  proc/nbgrp/npool/nimage =      12
     Subspace diagonalization in iterative solution of the eigenvalue problem:
     a serial algorithm will be used


     Parallelization info
     --------------------
     sticks:   dense  smooth     PW     G-vecs:    dense   smooth      PW
     Min         139      70     20                71489    25322    3895
     Max         140      71     22                71558    25395    3945
     Sum        1675     847    253               858263   304337   46813

     Using Slab Decomposition



     bravais-lattice index     =            4
     lattice parameter (alat)  =       6.1983  a.u.
     unit-cell volume          =    3143.7277 (a.u.)^3
     number of atoms/cell      =            6
     number of atomic types    =            2
     number of electrons       =        92.00
     number of Kohn-Sham states=           55
     kinetic-energy cutoff     =      80.0000  Ry
     charge density cutoff     =     640.0000  Ry
     scf convergence threshold =      1.0E-07
     mixing beta               =       0.1000
     number of iterations used =           12  local-TF  mixing
     Exchange-correlation= VDW-DF2-B86R
                           (   1   4  26   0   2   0   0)

     celldm(1)=   6.198302  celldm(2)=   0.000000  celldm(3)=  15.243902
     celldm(4)=   0.000000  celldm(5)=   0.000000  celldm(6)=   0.000000

     crystal axes: (cart. coord. in units of alat)
               a(1) = (   1.000000   0.000000   0.000000 )  
               a(2) = (  -0.500000   0.866025   0.000000 )  
               a(3) = (   0.000000   0.000000  15.243902 )  

     reciprocal axes: (cart. coord. in units 2 pi/alat)
               b(1) = (  1.000000  0.577350 -0.000000 )  
               b(2) = (  0.000000  1.154701  0.000000 )  
               b(3) = (  0.000000 -0.000000  0.065600 )  


     PseudoPot. # 1 for W  read from file:
     ./pseudo/W.pbe-spn-kjpaw_psl.1.0.0.UPF
     MD5 check sum: 03c3df5b60893f488392c7401945500a
     Pseudo is Projector augmented-wave + core cor, Zval = 14.0
     Generated using &quot;atomic&quot; code by A. Dal Corso  v.6.2.2
     Shape of augmentation charge: PSQ
     Using radial grid of 1273 points,  6 beta functions with: 
                l(1) =   0
                l(2) =   0
                l(3) =   1
                l(4) =   1
                l(5) =   2
                l(6) =   2
     Q(r) pseudized with 0 coefficients 


     PseudoPot. # 2 for Se read from file:
     ./pseudo/Se.pbe-dn-kjpaw_psl.1.0.0.UPF
     MD5 check sum: ac240dd2bae32a30e0bf3a38df9c8785
     Pseudo is Projector augmented-wave + core cor, Zval = 16.0
     Generated using &quot;atomic&quot; code by A. Dal Corso  v.6.3
     Shape of augmentation charge: PSQ
     Using radial grid of 1211 points,  6 beta functions with: 
                l(1) =   0
                l(2) =   0
                l(3) =   1
                l(4) =   1
                l(5) =   2
                l(6) =   2
     Q(r) pseudized with 0 coefficients 


     atomic species   valence    mass     pseudopotential
     W                14.00   183.84000     W ( 1.00)
     Se               16.00    78.96000     Se( 1.00)

      6 Sym. Ops. (no inversion) found



   Cartesian axes

     site n.     atom                  positions (alat units)
         1        Se     tau(   1) = (  -0.0000005   0.5773506   6.1149390  )
         2        W      tau(   2) = (   0.0000000   0.0000000   6.6383232  )
         3        Se     tau(   3) = (   0.5000005   0.2886748   7.1618445  )
         4        Se     tau(   4) = (  -0.0000005   0.5773506   9.6060213  )
         5        W      tau(   5) = (   0.5000005   0.2886748  10.1292683  )
         6        Se     tau(   6) = (   0.0000000   0.0000000  10.6533537  )

     number of k points=    30  Methfessel-Paxton smearing, width (Ry)=  0.0200
                       cart. coord. in units 2pi/alat
        k(    1) = (   0.0000000   0.0000000   0.0000000), wk =   0.0078125
        k(    2) = (   0.0000000   0.0721688   0.0000000), wk =   0.0468750
        k(    3) = (   0.0000000   0.1443376   0.0000000), wk =   0.0468750
        k(    4) = (   0.0000000   0.2165064   0.0000000), wk =   0.0468750
        k(    5) = (   0.0000000   0.2886751   0.0000000), wk =   0.0468750
        k(    6) = (   0.0000000   0.3608439   0.0000000), wk =   0.0468750
        k(    7) = (   0.0000000   0.4330127   0.0000000), wk =   0.0468750
        k(    8) = (   0.0000000   0.5051815   0.0000000), wk =   0.0468750
        k(    9) = (   0.0000000  -0.5773503   0.0000000), wk =   0.0234375
        k(   10) = (   0.0625000   0.1082532   0.0000000), wk =   0.0468750
        k(   11) = (   0.0625000   0.1804220   0.0000000), wk =   0.0937500
        k(   12) = (   0.0625000   0.2525907   0.0000000), wk =   0.0937500
        k(   13) = (   0.0625000   0.3247595   0.0000000), wk =   0.0937500
        k(   14) = (   0.0625000   0.3969283   0.0000000), wk =   0.0937500
        k(   15) = (   0.0625000   0.4690971   0.0000000), wk =   0.0937500
        k(   16) = (   0.0625000   0.5412659   0.0000000), wk =   0.0937500
        k(   17) = (   0.1250000   0.2165064   0.0000000), wk =   0.0468750
        k(   18) = (   0.1250000   0.2886751   0.0000000), wk =   0.0937500
        k(   19) = (   0.1250000   0.3608439   0.0000000), wk =   0.0937500
        k(   20) = (   0.1250000   0.4330127   0.0000000), wk =   0.0937500
        k(   21) = (   0.1250000   0.5051815   0.0000000), wk =   0.0937500
        k(   22) = (   0.1250000   0.5773503   0.0000000), wk =   0.0468750
        k(   23) = (   0.1875000   0.3247595   0.0000000), wk =   0.0468750
        k(   24) = (   0.1875000   0.3969283   0.0000000), wk =   0.0937500
        k(   25) = (   0.1875000   0.4690971   0.0000000), wk =   0.0937500
        k(   26) = (   0.1875000   0.5412659   0.0000000), wk =   0.0937500
        k(   27) = (   0.2500000   0.4330127   0.0000000), wk =   0.0468750
        k(   28) = (   0.2500000   0.5051815   0.0000000), wk =   0.0937500
        k(   29) = (   0.2500000   0.5773503   0.0000000), wk =   0.0468750
        k(   30) = (   0.3125000   0.5412659   0.0000000), wk =   0.0468750

     Dense  grid:   858263 G-vectors     FFT dimensions: (  50,  50, 768)

     Smooth grid:   304337 G-vectors     FFT dimensions: (  36,  36, 540)

     Estimated max dynamical RAM per process >     350.14 MB

     Estimated total dynamical RAM >       4.10 GB

     Initial potential from superposition of free atoms

     starting charge      91.9986, renormalised to      92.0000

     negative rho (up, down):  1.571E-04 0.000E+00


     %%%%%%%%%%%%%%%%%%%%%%%%%%%%%%%%%%%%%%%%%%%%%%%%%%%%%%%%%%%%%%%%%%%%%%%%
     %                                                                      %
     % You are using vdW-DF, which was implemented by the Thonhauser group. %
     % Please cite the following two papers that made this development      %
     % possible and the two reviews that describe the various versions:     %
     %                                                                      %
     %   T. Thonhauser et al., PRL 115, 136402 (2015).                      %
     %   T. Thonhauser et al., PRB 76, 125112 (2007).                       %
     %   K. Berland et al., Rep. Prog. Phys. 78, 066501 (2015).             %
     %   D.C. Langreth et al., J. Phys.: Condens. Matter 21, 084203 (2009). %
     %                                                                      %
     % If you are calculating stress with vdW-DF, please also cite:         %
     %                                                                      %
     %   R. Sabatini et al., J. Phys.: Condens. Matter 24, 424209 (2012).   %
     %                                                                      %
     %%%%%%%%%%%%%%%%%%%%%%%%%%%%%%%%%%%%%%%%%%%%%%%%%%%%%%%%%%%%%%%%%%%%%%%%

     %%%%%%%%%%%%%%%%%%%%%%%%%%%%%%%%%%%%%%%%%%%%%%%%%%%%%%%%%%%%%%%%%%%%%%%%
     %                                                                      %
     %  vdW-DF NEWS:                                                        %
     %                                                                      %
     %  * vdW-DF3 is now available. DOI: 10.1021/acs.jctc.0c00471           %
     %    use with input_dft = 'vdW-DF3-opt1' or 'vdW-DF3-opt2'             %
     %                                                                      %
     %  * Unscreened and range-separated hybrid vdW-DF-cx functionals       %
     %    DOI: 10.1063/1.4986522 and 10.1088/1361-648X/ac2ad2               %
     %    use with input_dft = 'vdW-DF-cx0'    and 'vdW-DF-ahcx'            %
     %  * Unscreened and range-separated hybrid vdW-DF2-b86r functionals    %
     %    DOI: 10.1063/1.4986522 and DOI: 10.1103/PhysRevX.12.041003        %
     %    use with input_dft = 'vdW-DF2-br0' and 'vdW-DF2-ahbr'             %
     %                                                                      %
     %%%%%%%%%%%%%%%%%%%%%%%%%%%%%%%%%%%%%%%%%%%%%%%%%%%%%%%%%%%%%%%%%%%%%%%%


     Starting wfcs are   62 randomized atomic wfcs
     Checking if some PAW data can be deallocated... 

     total cpu time spent up to now is       42.5 secs

     per-process dynamical memory:   142.9 Mb

     Self-consistent Calculation

     iteration #  1     ecut=    80.00 Ry     beta= 0.10
     Davidson diagonalization with overlap
     ethr =  1.00E-02,  avg # of iterations =  4.1

     Threshold (ethr) on eigenvalues was too large:
     Diagonalizing with lowered threshold

     Davidson diagonalization with overlap
     ethr =  1.09E-04,  avg # of iterations =  6.7

     negative rho (up, down):  9.076E-05 0.000E+00

     total cpu time spent up to now is      220.6 secs

     total energy              =   -3113.99271577 Ry
     estimated scf accuracy    <       0.12922757 Ry

     iteration #  2     ecut=    80.00 Ry     beta= 0.10
     Davidson diagonalization with overlap
     ethr =  1.40E-04,  avg # of iterations =  1.0

     negative rho (up, down):  8.680E-05 0.000E+00

     total cpu time spent up to now is      288.2 secs

     total energy              =   -3113.94780116 Ry
     estimated scf accuracy    <       0.11813509 Ry

     iteration #  3     ecut=    80.00 Ry     beta= 0.10
     Davidson diagonalization with overlap
     ethr =  1.28E-04,  avg # of iterations =  2.6

     negative rho (up, down):  1.614E-05 0.000E+00

     total cpu time spent up to now is      367.3 secs

     total energy              =   -3113.96256578 Ry
     estimated scf accuracy    <       0.02286454 Ry

     iteration #  4     ecut=    80.00 Ry     beta= 0.10
     Davidson diagonalization with overlap
     ethr =  2.49E-05,  avg # of iterations =  2.9

     negative rho (up, down):  4.007E-08 0.000E+00

     total cpu time spent up to now is      441.8 secs

     total energy              =   -3113.95834309 Ry
     estimated scf accuracy    <       0.02065503 Ry

     iteration #  5     ecut=    80.00 Ry     beta= 0.10
     Davidson diagonalization with overlap
     ethr =  2.25E-05,  avg # of iterations =  3.2

     negative rho (up, down):  3.237E-08 0.000E+00

     total cpu time spent up to now is      522.5 secs

     total energy              =   -3113.96011664 Ry
     estimated scf accuracy    <       0.00307379 Ry

     iteration #  6     ecut=    80.00 Ry     beta= 0.10
     Davidson diagonalization with overlap
     c_bands:  1 eigenvalues not converged
     c_bands:  1 eigenvalues not converged
     ethr =  3.34E-06,  avg # of iterations =  6.2

     negative rho (up, down):  1.538E-07 0.000E+00

     total cpu time spent up to now is      604.4 secs

     total energy              =   -3113.95894493 Ry
     estimated scf accuracy    <       0.00288269 Ry

     iteration #  7     ecut=    80.00 Ry     beta= 0.10
     Davidson diagonalization with overlap
     ethr =  3.13E-06,  avg # of iterations =  3.9

     negative rho (up, down):  2.095E-07 0.000E+00

     total cpu time spent up to now is      688.0 secs

     total energy              =   -3113.95877638 Ry
     estimated scf accuracy    <       0.00389372 Ry

     iteration #  8     ecut=    80.00 Ry     beta= 0.10
     Davidson diagonalization with overlap
     c_bands:  1 eigenvalues not converged
     c_bands:  1 eigenvalues not converged
     c_bands:  1 eigenvalues not converged
     ethr =  3.13E-06,  avg # of iterations =  4.1

     negative rho (up, down):  2.295E-08 0.000E+00

     total cpu time spent up to now is      767.7 secs

     total energy              =   -3113.95875130 Ry
     estimated scf accuracy    <       0.00092186 Ry

     iteration #  9     ecut=    80.00 Ry     beta= 0.10
     Davidson diagonalization with overlap
     c_bands:  1 eigenvalues not converged
     ethr =  1.00E-06,  avg # of iterations =  6.9

     negative rho (up, down):  3.968E-08 0.000E+00

     total cpu time spent up to now is      827.1 secs

     total energy              =   -3113.95870478 Ry
     estimated scf accuracy    <       0.00058010 Ry

     iteration # 10     ecut=    80.00 Ry     beta= 0.10
     Davidson diagonalization with overlap
     ethr =  6.31E-07,  avg # of iterations =  1.7

     total cpu time spent up to now is      871.3 secs

     total energy              =   -3113.95875487 Ry
     estimated scf accuracy    <       0.00040585 Ry

     iteration # 11     ecut=    80.00 Ry     beta= 0.10
     Davidson diagonalization with overlap
     ethr =  4.41E-07,  avg # of iterations =  3.1

     total cpu time spent up to now is      915.1 secs

     total energy              =   -3113.95876407 Ry
     estimated scf accuracy    <       0.00034131 Ry

     iteration # 12     ecut=    80.00 Ry     beta= 0.10
     Davidson diagonalization with overlap
     ethr =  3.71E-07,  avg # of iterations =  6.0

     negative rho (up, down):  2.125E-04 0.000E+00

     total cpu time spent up to now is      961.2 secs

     total energy              =   -3113.95872118 Ry
     estimated scf accuracy    <       0.00030537 Ry

     iteration # 13     ecut=    80.00 Ry     beta= 0.10
     Davidson diagonalization with overlap
     ethr =  3.32E-07,  avg # of iterations =  6.2

     negative rho (up, down):  1.157E-03 0.000E+00

     total cpu time spent up to now is     1008.3 secs

     total energy              =   -3113.95872568 Ry
     estimated scf accuracy    <       0.00025666 Ry

     iteration # 14     ecut=    80.00 Ry     beta= 0.10
     Davidson diagonalization with overlap
     ethr =  2.79E-07,  avg # of iterations =  2.0

     negative rho (up, down):  2.408E-03 0.000E+00

     total cpu time spent up to now is     1050.2 secs

     total energy              =   -3113.95870894 Ry
     estimated scf accuracy    <       0.00024969 Ry

     iteration # 15     ecut=    80.00 Ry     beta= 0.10
     Davidson diagonalization with overlap
     ethr =  2.71E-07,  avg # of iterations =  6.2

     negative rho (up, down):  2.836E-03 0.000E+00

     total cpu time spent up to now is     1105.8 secs

     total energy              =   -3113.95870415 Ry
     estimated scf accuracy    <       0.00028807 Ry

     iteration # 16     ecut=    80.00 Ry     beta= 0.10
     Davidson diagonalization with overlap
     ethr =  2.71E-07,  avg # of iterations =  4.1

     negative rho (up, down):  4.614E-03 0.000E+00

     total cpu time spent up to now is     1154.1 secs

     total energy              =   -3113.95862651 Ry
     estimated scf accuracy    <       0.00025349 Ry

     iteration # 17     ecut=    80.00 Ry     beta= 0.10
     Davidson diagonalization with overlap
     ethr =  2.71E-07,  avg # of iterations =  4.3

     negative rho (up, down):  4.809E-03 0.000E+00

     total cpu time spent up to now is     1204.2 secs

     total energy              =   -3113.95863652 Ry
     estimated scf accuracy    <       0.00012837 Ry

     iteration # 18     ecut=    80.00 Ry     beta= 0.10
     Davidson diagonalization with overlap
     ethr =  1.40E-07,  avg # of iterations =  2.5

     negative rho (up, down):  2.442E-03 0.000E+00

     total cpu time spent up to now is     1252.0 secs

     total energy              =   -3113.95864990 Ry
     estimated scf accuracy    <       0.00015396 Ry

     iteration # 19     ecut=    80.00 Ry     beta= 0.10
     Davidson diagonalization with overlap
     ethr =  1.40E-07,  avg # of iterations =  5.6

     negative rho (up, down):  2.589E-03 0.000E+00

     total cpu time spent up to now is     1301.3 secs

     total energy              =   -3113.95863889 Ry
     estimated scf accuracy    <       0.00003729 Ry

     iteration # 20     ecut=    80.00 Ry     beta= 0.10
     Davidson diagonalization with overlap
     ethr =  4.05E-08,  avg # of iterations =  5.1

     negative rho (up, down):  1.414E-03 0.000E+00

     total cpu time spent up to now is     1354.4 secs

     total energy              =   -3113.95865975 Ry
     estimated scf accuracy    <       0.00002425 Ry

     iteration # 21     ecut=    80.00 Ry     beta= 0.10
     Davidson diagonalization with overlap
     ethr =  2.64E-08,  avg # of iterations =  5.0

     negative rho (up, down):  1.379E-03 0.000E+00

     total cpu time spent up to now is     1406.4 secs

     total energy              =   -3113.95866980 Ry
     estimated scf accuracy    <       0.00002323 Ry

     iteration # 22     ecut=    80.00 Ry     beta= 0.10
     Davidson diagonalization with overlap
     ethr =  2.52E-08,  avg # of iterations =  2.1

     negative rho (up, down):  5.540E-04 0.000E+00

     total cpu time spent up to now is     1446.6 secs

     total energy              =   -3113.95867007 Ry
     estimated scf accuracy    <       0.00001808 Ry

     iteration # 23     ecut=    80.00 Ry     beta= 0.10
     Davidson diagonalization with overlap
     ethr =  1.97E-08,  avg # of iterations =  2.6

     negative rho (up, down):  2.796E-04 0.000E+00

     total cpu time spent up to now is     1492.5 secs

     total energy              =   -3113.95866782 Ry
     estimated scf accuracy    <       0.00000951 Ry

     iteration # 24     ecut=    80.00 Ry     beta= 0.10
     Davidson diagonalization with overlap
     ethr =  1.03E-08,  avg # of iterations =  2.0

     negative rho (up, down):  1.613E-04 0.000E+00

     total cpu time spent up to now is     1537.4 secs

     total energy              =   -3113.95866922 Ry
     estimated scf accuracy    <       0.00000430 Ry

     iteration # 25     ecut=    80.00 Ry     beta= 0.10
     Davidson diagonalization with overlap
     ethr =  4.67E-09,  avg # of iterations =  2.0

     negative rho (up, down):  2.721E-04 0.000E+00

     total cpu time spent up to now is     1583.2 secs

     total energy              =   -3113.95867117 Ry
     estimated scf accuracy    <       0.00000301 Ry

     iteration # 26     ecut=    80.00 Ry     beta= 0.10
     Davidson diagonalization with overlap
     ethr =  3.27E-09,  avg # of iterations =  2.5

     negative rho (up, down):  2.620E-04 0.000E+00

     total cpu time spent up to now is     1633.3 secs

     total energy              =   -3113.95867246 Ry
     estimated scf accuracy    <       0.00000031 Ry

     iteration # 27     ecut=    80.00 Ry     beta= 0.10
     Davidson diagonalization with overlap
     ethr =  3.37E-10,  avg # of iterations =  2.2

     negative rho (up, down):  1.966E-04 0.000E+00

     total cpu time spent up to now is     1678.8 secs

     total energy              =   -3113.95867348 Ry
     estimated scf accuracy    <       0.00000018 Ry

     iteration # 28     ecut=    80.00 Ry     beta= 0.10
     Davidson diagonalization with overlap
     ethr =  1.94E-10,  avg # of iterations =  2.4

     negative rho (up, down):  1.599E-04 0.000E+00

     total cpu time spent up to now is     1727.8 secs

     total energy              =   -3113.95867366 Ry
     estimated scf accuracy    <       0.00000010 Ry

     iteration # 29     ecut=    80.00 Ry     beta= 0.10
     Davidson diagonalization with overlap
     ethr =  1.13E-10,  avg # of iterations =  2.8

     negative rho (up, down):  1.550E-04 0.000E+00

     total cpu time spent up to now is     1777.7 secs

     End of self-consistent calculation

          k = 0.0000 0.0000 0.0000 ( 38015 PWs)   bands (ev):

   -74.8825 -74.8824 -48.1482 -48.1482 -48.1477 -48.1477 -48.1470 -48.1470
   -48.1465 -48.1465 -48.1172 -48.1172 -48.1171 -48.1171 -48.1162 -48.1162
   -48.1158 -48.1158 -48.1032 -48.1029 -48.1021 -48.1017 -39.0756 -39.0752
   -39.0406 -39.0405 -39.0399 -39.0399 -15.5127 -15.5097 -14.4419 -14.4408
    -6.9745  -6.9728  -3.3537  -3.3537  -3.3491  -3.3491  -3.3327  -3.3287
    -1.3261  -1.3194  -0.6896  -0.6896  -0.6876  -0.6876   0.2061   0.2061
     0.2082   0.2082   2.9588   3.4084   3.4084   3.4103   3.4391

          k = 0.0000 0.0722 0.0000 ( 37975 PWs)   bands (ev):

   -74.8821 -74.8820 -48.1482 -48.1480 -48.1477 -48.1476 -48.1470 -48.1468
   -48.1465 -48.1463 -48.1173 -48.1173 -48.1171 -48.1171 -48.1163 -48.1162
   -48.1159 -48.1158 -48.1031 -48.1028 -48.1020 -48.1016 -39.0738 -39.0734
   -39.0496 -39.0490 -39.0427 -39.0421 -15.4516 -15.4486 -14.4139 -14.4127
    -6.8921  -6.8904  -3.8410  -3.8379  -3.3190  -3.3144  -2.9226  -2.9195
    -1.3991  -1.3946  -0.9764  -0.9741  -0.9187  -0.9164   0.1932   0.1965
     0.4076   0.4094   2.9735   3.0755   3.1726   3.3668   3.3686

          k = 0.0000 0.1443 0.0000 ( 37895 PWs)   bands (ev):

   -74.8810 -74.8808 -48.1481 -48.1478 -48.1475 -48.1470 -48.1469 -48.1465
   -48.1463 -48.1457 -48.1176 -48.1175 -48.1173 -48.1171 -48.1165 -48.1163
   -48.1160 -48.1158 -48.1028 -48.1025 -48.1018 -48.1013 -39.0755 -39.0749
   -39.0685 -39.0682 -39.0487 -39.0481 -15.2725 -15.2697 -14.3320 -14.3307
    -6.6523  -6.6506  -4.3461  -4.3428  -3.2360  -3.2314  -2.6999  -2.6972
    -2.0379  -2.0359  -1.3024  -1.2998  -1.1922  -1.1881   0.1933   0.1994
     0.7117   0.7130   2.4682   2.5081   3.2905   3.2921   3.3991

          k = 0.0000 0.2165 0.0000 ( 37851 PWs)   bands (ev):

   -74.8793 -74.8791 -48.1480 -48.1479 -48.1469 -48.1467 -48.1465 -48.1463
   -48.1455 -48.1450 -48.1180 -48.1176 -48.1174 -48.1171 -48.1169 -48.1165
   -48.1162 -48.1158 -48.1025 -48.1021 -48.1014 -48.1010 -39.1138 -39.1131
   -39.0608 -39.0605 -39.0577 -39.0571 -14.9892 -14.9864 -14.2026 -14.2011
    -6.2847  -6.2830  -4.7987  -4.7953  -3.2970  -3.2947  -3.1730  -3.1685
    -2.4461  -2.4439  -1.5951  -1.5922  -1.3302  -1.3280   0.2314   0.2386
     0.9145   0.9154   2.1617   2.1991   3.2641   3.2656   3.7856

          k = 0.0000 0.2887 0.0000 ( 37919 PWs)   bands (ev):

   -74.8773 -74.8771 -48.1481 -48.1478 -48.1470 -48.1465 -48.1458 -48.1454
   -48.1446 -48.1441 -48.1185 -48.1178 -48.1177 -48.1173 -48.1171 -48.1167
   -48.1165 -48.1159 -48.1021 -48.1017 -48.1010 -48.1005 -39.1587 -39.1580
   -39.0684 -39.0677 -39.0517 -39.0514 -14.6283 -14.6257 -14.0344 -14.0327
    -5.8939  -5.8919  -5.1152  -5.1121  -4.3549  -4.3523  -3.2185  -3.2143
    -2.6174  -2.6161  -1.6929  -1.6899  -1.6341  -1.6330   0.3898   0.3967
     1.0194   1.0201   2.3007   2.3412   3.3093   3.3109   4.2721

          k = 0.0000 0.3608 0.0000 ( 37933 PWs)   bands (ev):

   -74.8753 -74.8751 -48.1482 -48.1477 -48.1471 -48.1464 -48.1449 -48.1446
   -48.1438 -48.1433 -48.1189 -48.1180 -48.1179 -48.1178 -48.1171 -48.1169
   -48.1167 -48.1159 -48.1016 -48.1013 -48.1005 -48.1001 -39.2032 -39.2025
   -39.0790 -39.0783 -39.0426 -39.0422 -14.2437 -14.2412 -13.8294 -13.8275
    -5.9054  -5.9027  -5.3316  -5.3291  -4.9140  -4.9117  -3.3676  -3.3636
    -2.9639  -2.9633  -1.9384  -1.9376  -1.6324  -1.6295   0.7303   0.7357
     1.1127   1.1136   2.7448   2.7860   3.3831   3.3849   4.8032

          k = 0.0000 0.4330 0.0000 ( 37998 PWs)   bands (ev):

   -74.8736 -74.8734 -48.1484 -48.1476 -48.1472 -48.1464 -48.1441 -48.1439
   -48.1430 -48.1425 -48.1193 -48.1182 -48.1181 -48.1181 -48.1172 -48.1170
   -48.1169 -48.1160 -48.1013 -48.1009 -48.1002 -48.0997 -39.2407 -39.2400
   -39.0879 -39.0873 -39.0348 -39.0345 -13.9392 -13.9366 -13.5665 -13.5644
    -6.5199  -6.5170  -5.6009  -5.5985  -4.6915  -4.6898  -3.5322  -3.5283
    -3.2569  -3.2563  -2.1255  -2.1250  -1.5371  -1.5343   1.1967   1.2003
     1.2517   1.2529   3.2554   3.2855   3.4450   3.4470   4.6031

          k = 0.0000 0.5052 0.0000 ( 38048 PWs)   bands (ev):

   -74.8724 -74.8723 -48.1485 -48.1476 -48.1473 -48.1463 -48.1436 -48.1434
   -48.1425 -48.1421 -48.1196 -48.1184 -48.1182 -48.1182 -48.1172 -48.1171
   -48.1170 -48.1160 -48.1010 -48.1007 -48.0999 -48.0995 -39.2656 -39.2649
   -39.0939 -39.0933 -39.0296 -39.0293 -13.7777 -13.7749 -13.2982 -13.2962
    -7.0839  -7.0809  -5.6185  -5.6166  -4.7672  -4.7656  -3.6489  -3.6451
    -3.1899  -3.1889  -2.2436  -2.2433  -1.4757  -1.4732   1.4011   1.4027
     1.6689   1.6708   3.4570   3.4641   3.4813   3.4835   4.5272

          k = 0.0000-0.5774 0.0000 ( 38024 PWs)   bands (ev):

   -74.8720 -74.8719 -48.1485 -48.1475 -48.1473 -48.1463 -48.1435 -48.1432
   -48.1423 -48.1419 -48.1197 -48.1185 -48.1183 -48.1182 -48.1172 -48.1171
   -48.1170 -48.1160 -48.1009 -48.1006 -48.0998 -48.0994 -39.2743 -39.2736
   -39.0960 -39.0954 -39.0278 -39.0275 -13.7279 -13.7251 -13.1837 -13.1818
    -7.2967  -7.2937  -5.5831  -5.5816  -4.8893  -4.8876  -3.6903  -3.6864
    -3.0741  -3.0730  -2.2965  -2.2963  -1.4567  -1.4543   1.4678   1.4695
     1.8924   1.8931   3.4787   3.4823   3.4929   3.4951   4.2119

          k = 0.0625 0.1083 0.0000 ( 37895 PWs)   bands (ev):

   -74.8814 -74.8812 -48.1481 -48.1478 -48.1476 -48.1472 -48.1469 -48.1465
   -48.1464 -48.1459 -48.1175 -48.1174 -48.1172 -48.1171 -48.1164 -48.1163
   -48.1160 -48.1158 -48.1029 -48.1026 -48.1018 -48.1014 -39.0703 -39.0700
   -39.0668 -39.0662 -39.0470 -39.0464 -15.3315 -15.3286 -14.3589 -14.3576
    -6.7306  -6.7289  -4.2115  -4.2082  -3.2679  -3.2633  -2.7218  -2.7189
    -1.7782  -1.7766  -1.3112  -1.3087  -1.1025  -1.0982   0.2622   0.2675
     0.5601   0.5614   2.6801   2.7271   3.2096   3.2305   3.3409

          k = 0.0625 0.1804 0.0000 ( 37885 PWs)   bands (ev):

   -74.8799 -74.8798 -48.1480 -48.1478 -48.1470 -48.1469 -48.1466 -48.1465
   -48.1459 -48.1453 -48.1179 -48.1176 -48.1173 -48.1171 -48.1168 -48.1164
   -48.1161 -48.1159 -48.1026 -48.1023 -48.1015 -48.1011 -39.0981 -39.0975
   -39.0640 -39.0636 -39.0551 -39.0545 -15.0998 -15.0970 -14.2534 -14.2520
    -6.4227  -6.4210  -4.6435  -4.6401  -3.2593  -3.2550  -2.8023  -2.8004
    -2.4665  -2.4646  -1.6541  -1.6516  -1.1360  -1.1325   0.3231   0.3290
     0.6664   0.6682   2.4040   2.4436   3.0770   3.0828   3.6478

          k = 0.0625 0.2526 0.0000 ( 37916 PWs)   bands (ev):

   -74.8781 -74.8779 -48.1480 -48.1478 -48.1469 -48.1465 -48.1462 -48.1458
   -48.1451 -48.1445 -48.1183 -48.1177 -48.1175 -48.1172 -48.1171 -48.1166
   -48.1163 -48.1159 -48.1022 -48.1019 -48.1011 -48.1007 -39.1388 -39.1381
   -39.0662 -39.0656 -39.0552 -39.0549 -14.7759 -14.7731 -14.1056 -14.1039
    -6.0170  -6.0152  -5.0169  -5.0135  -3.9000  -3.8972  -3.1978  -3.1942
    -2.5969  -2.5954  -1.9146  -1.9126  -1.2054  -1.2035   0.2803   0.2855
     0.8734   0.8770   2.3409   2.3750   3.0840   3.0959   4.0813

          k = 0.0625 0.3248 0.0000 ( 37964 PWs)   bands (ev):

   -74.8761 -74.8759 -48.1481 -48.1477 -48.1469 -48.1464 -48.1453 -48.1450
   -48.1442 -48.1437 -48.1188 -48.1179 -48.1178 -48.1176 -48.1172 -48.1168
   -48.1166 -48.1160 -48.1018 -48.1015 -48.1007 -48.1003 -39.1825 -39.1818
   -39.0778 -39.0771 -39.0462 -39.0459 -14.3963 -14.3937 -13.9233 -13.9215
    -5.7458  -5.7435  -5.1866  -5.1840  -4.8232  -4.8204  -3.4307  -3.4275
    -2.7106  -2.7095  -2.2440  -2.2421  -1.2627  -1.2612   0.3945   0.3987
     1.1294   1.1322   2.5074   2.5349   3.2190   3.2391   4.6073

          k = 0.0625 0.3969 0.0000 ( 37981 PWs)   bands (ev):

   -74.8742 -74.8740 -48.1482 -48.1476 -48.1470 -48.1463 -48.1445 -48.1442
   -48.1434 -48.1429 -48.1192 -48.1181 -48.1180 -48.1179 -48.1172 -48.1170
   -48.1168 -48.1160 -48.1014 -48.1011 -48.1003 -48.0999 -39.2225 -39.2218
   -39.0885 -39.0879 -39.0378 -39.0375 -14.0388 -14.0362 -13.6971 -13.6951
    -6.1329  -6.1301  -5.5097  -5.5071  -4.7665  -4.7645  -3.6796  -3.6767
    -2.9775  -2.9765  -2.4725  -2.4708  -1.2572  -1.2556   0.6879   0.6906
     1.3993   1.4012   2.7984   2.8131   3.4395   3.4660   4.9276

          k = 0.0625 0.4691 0.0000 ( 38057 PWs)   bands (ev):

   -74.8728 -74.8726 -48.1483 -48.1475 -48.1471 -48.1462 -48.1439 -48.1437
   -48.1428 -48.1424 -48.1195 -48.1183 -48.1183 -48.1180 -48.1173 -48.1172
   -48.1169 -48.1161 -48.1011 -48.1008 -48.1000 -48.0996 -39.2529 -39.2522
   -39.0967 -39.0960 -39.0313 -39.0310 -13.8111 -13.8084 -13.4172 -13.4152
    -6.7854  -6.7825  -5.6135  -5.6113  -4.6521  -4.6505  -3.7938  -3.7906
    -3.1454  -3.1441  -2.5691  -2.5678  -1.2623  -1.2609   1.0645   1.0659
     1.6717   1.6731   3.0255   3.0304   3.6177   3.6304   4.7058

          k = 0.0625 0.5413 0.0000 ( 38034 PWs)   bands (ev):

   -74.8720 -74.8719 -48.1484 -48.1474 -48.1472 -48.1461 -48.1436 -48.1434
   -48.1425 -48.1420 -48.1196 -48.1185 -48.1184 -48.1181 -48.1173 -48.1173
   -48.1169 -48.1161 -48.1009 -48.1006 -48.0998 -48.0994 -39.2693 -39.2686
   -39.1011 -39.1005 -39.0278 -39.0275 -13.7115 -13.7087 -13.2107 -13.2087
    -7.1846  -7.1816  -5.5878  -5.5861  -4.8102  -4.8085  -3.8035  -3.8000
    -3.0684  -3.0671  -2.6195  -2.6184  -1.2893  -1.2879   1.3698   1.3712
     1.8443   1.8450   3.1808   3.1829   3.5364   3.5402   4.5476

          k = 0.1250 0.2165 0.0000 ( 37933 PWs)   bands (ev):

   -74.8784 -74.8782 -48.1479 -48.1478 -48.1468 -48.1464 -48.1464 -48.1460
   -48.1452 -48.1447 -48.1183 -48.1177 -48.1174 -48.1173 -48.1171 -48.1165
   -48.1162 -48.1160 -48.1023 -48.1020 -48.1012 -48.1008 -39.1305 -39.1299
   -39.0669 -39.0663 -39.0564 -39.0560 -14.8264 -14.8236 -14.1300 -14.1284
    -6.0616  -6.0598  -4.9689  -4.9654  -3.7342  -3.7309  -2.9752  -2.9737
    -2.8967  -2.8933  -1.9105  -1.9086  -1.0349  -1.0321   0.2805   0.2825
     0.7045   0.7117   2.6629   2.6947   2.6948   2.7137   4.0212

          k = 0.1250 0.2887 0.0000 ( 37936 PWs)   bands (ev):

   -74.8765 -74.8763 -48.1479 -48.1476 -48.1468 -48.1463 -48.1457 -48.1453
   -48.1445 -48.1440 -48.1187 -48.1178 -48.1176 -48.1175 -48.1174 -48.1167
   -48.1164 -48.1161 -48.1019 -48.1016 -48.1008 -48.1004 -39.1678 -39.1671
   -39.0806 -39.0800 -39.0481 -39.0478 -14.4773 -14.4746 -13.9718 -13.9700
    -5.6465  -5.6447  -5.2265  -5.2232  -4.5422  -4.5392  -3.4368  -3.4346
    -2.9731  -2.9703  -2.1951  -2.1939  -0.9223  -0.9204   0.0991   0.1018
     1.0876   1.0935   2.3974   2.4030   3.0286   3.0769   4.4994

          k = 0.1250 0.3608 0.0000 ( 38000 PWs)   bands (ev):

   -74.8747 -74.8745 -48.1479 -48.1473 -48.1468 -48.1461 -48.1449 -48.1447
   -48.1438 -48.1434 -48.1191 -48.1180 -48.1179 -48.1178 -48.1174 -48.1168
   -48.1166 -48.1162 -48.1015 -48.1012 -48.1004 -48.1000 -39.2045 -39.2039
   -39.0948 -39.0941 -39.0397 -39.0394 -14.1023 -14.0998 -13.7841 -13.7821
    -5.7184  -5.7156  -5.3677  -5.3650  -4.8990  -4.8967  -3.8246  -3.8222
    -3.0768  -3.0744  -2.6307  -2.6297  -0.8443  -0.8430   0.2098   0.2123
     1.4750   1.4783   2.3176   2.3228   3.4009   3.4449   5.0490

          k = 0.1250 0.4330 0.0000 ( 38048 PWs)   bands (ev):

   -74.8731 -74.8729 -48.1479 -48.1472 -48.1468 -48.1459 -48.1443 -48.1441
   -48.1432 -48.1428 -48.1193 -48.1183 -48.1182 -48.1179 -48.1175 -48.1171
   -48.1167 -48.1163 -48.1011 -48.1008 -48.1001 -48.0997 -39.2354 -39.2347
   -39.1068 -39.1062 -39.0326 -39.0323 -13.8095 -13.8069 -13.5399 -13.5378
    -6.3512  -6.3483  -5.5600  -5.5574  -4.5552  -4.5534  -4.0748  -4.0723
    -3.2064  -3.2043  -3.0009  -2.9998  -0.8648  -0.8640   0.5629   0.5646
     1.7615   1.7630   2.4222   2.4262   3.7096   3.7356   5.1120

          k = 0.1250 0.5052 0.0000 ( 38027 PWs)   bands (ev):

   -74.8720 -74.8719 -48.1480 -48.1470 -48.1468 -48.1458 -48.1439 -48.1437
   -48.1428 -48.1424 -48.1195 -48.1185 -48.1183 -48.1179 -48.1175 -48.1174
   -48.1168 -48.1163 -48.1009 -48.1006 -48.0998 -48.0994 -39.2559 -39.2552
   -39.1149 -39.1143 -39.0278 -39.0275 -13.6635 -13.6608 -13.2836 -13.2815
    -6.8717  -6.8688  -5.5832  -5.5811  -4.6169  -4.6151  -4.0408  -4.0381
    -3.2955  -3.2936  -3.1048  -3.1035  -0.9529  -0.9524   1.0177   1.0188
     1.8430   1.8440   2.6197   2.6222   3.7144   3.7206   5.0042

          k = 0.1250 0.5774 0.0000 ( 37968 PWs)   bands (ev):

   -74.8717 -74.8715 -48.1480 -48.1470 -48.1468 -48.1457 -48.1437 -48.1436
   -48.1426 -48.1422 -48.1195 -48.1186 -48.1184 -48.1179 -48.1175 -48.1174
   -48.1168 -48.1163 -48.1008 -48.1005 -48.0997 -48.0993 -39.2630 -39.2623
   -39.1178 -39.1171 -39.0261 -39.0258 -13.6187 -13.6160 -13.1761 -13.1741
    -7.0648  -7.0619  -5.5671  -5.5651  -4.7226  -4.7208  -4.0194  -4.0165
    -3.3153  -3.3136  -3.0733  -3.0720  -1.0047  -1.0042   1.3113   1.3123
     1.7521   1.7527   2.7567   2.7582   3.5847   3.5888   4.9805

          k = 0.1875 0.3248 0.0000 ( 37987 PWs)   bands (ev):

   -74.8748 -74.8746 -48.1478 -48.1472 -48.1466 -48.1459 -48.1452 -48.1448
   -48.1440 -48.1435 -48.1190 -48.1179 -48.1178 -48.1177 -48.1177 -48.1167
   -48.1166 -48.1164 -48.1015 -48.1012 -48.1004 -48.1000 -39.1964 -39.1958
   -39.0988 -39.0982 -39.0404 -39.0401 -14.1243 -14.1218 -13.8144 -13.8124
    -5.4147  -5.4118  -5.3933  -5.3908  -4.9761  -4.9736  -3.8262  -3.8244
    -3.3834  -3.3803  -2.5093  -2.5085  -0.5914  -0.5897  -0.0589  -0.0567
     1.4810   1.4853   2.1254   2.1275   3.3901   3.4396   5.0104

          k = 0.1875 0.3969 0.0000 ( 38014 PWs)   bands (ev):

   -74.8732 -74.8731 -48.1476 -48.1469 -48.1464 -48.1456 -48.1447 -48.1444
   -48.1436 -48.1431 -48.1193 -48.1181 -48.1181 -48.1178 -48.1177 -48.1169
   -48.1167 -48.1165 -48.1012 -48.1009 -48.1001 -48.0997 -39.2211 -39.2204
   -39.1172 -39.1166 -39.0333 -39.0330 -13.7815 -13.7791 -13.6346 -13.6323
    -5.9336  -5.9309  -5.5133  -5.5102  -4.6021  -4.6002  -4.1793  -4.1773
    -3.7276  -3.7249  -2.9128  -2.9120  -0.4265  -0.4255   0.0858   0.0873
     1.7967   1.7987   2.0404   2.0431   3.7510   3.7849   5.5216

          k = 0.1875 0.4691 0.0000 ( 38010 PWs)   bands (ev):

   -74.8720 -74.8719 -48.1475 -48.1466 -48.1463 -48.1454 -48.1443 -48.1441
   -48.1432 -48.1428 -48.1194 -48.1184 -48.1182 -48.1178 -48.1178 -48.1173
   -48.1167 -48.1165 -48.1009 -48.1007 -48.0998 -48.0995 -39.2390 -39.2383
   -39.1321 -39.1315 -39.0279 -39.0275 -13.5879 -13.5854 -13.3833 -13.3811
    -6.4484  -6.4455  -5.5639  -5.5612  -4.4318  -4.4298  -4.2334  -4.2314
    -3.9791  -3.9768  -3.2106  -3.2096  -0.5215  -0.5211   0.5267   0.5276
     1.8553   1.8563   2.2075   2.2103   3.9006   3.9119   5.2804

          k = 0.1875 0.5413 0.0000 ( 38010 PWs)   bands (ev):

   -74.8714 -74.8712 -48.1474 -48.1465 -48.1462 -48.1452 -48.1441 -48.1440
   -48.1430 -48.1426 -48.1194 -48.1187 -48.1182 -48.1178 -48.1178 -48.1175
   -48.1167 -48.1165 -48.1008 -48.1005 -48.0997 -48.0993 -39.2484 -39.2477
   -39.1405 -39.1398 -39.0249 -39.0246 -13.5094 -13.5068 -13.1997 -13.1975
    -6.7479  -6.7451  -5.5715  -5.5691  -4.5633  -4.5611  -4.1698  -4.1677
    -4.0572  -4.0554  -3.2636  -3.2623  -0.6302  -0.6300   0.9966   0.9970
     1.6241   1.6251   2.4850   2.4868   3.7013   3.7051   5.2846

          k = 0.2500 0.4330 0.0000 ( 38031 PWs)   bands (ev):

   -74.8720 -74.8719 -48.1472 -48.1464 -48.1460 -48.1451 -48.1446 -48.1443
   -48.1435 -48.1430 -48.1193 -48.1182 -48.1182 -48.1181 -48.1178 -48.1171
   -48.1169 -48.1166 -48.1009 -48.1007 -48.0998 -48.0995 -39.2302 -39.2295
   -39.1411 -39.1405 -39.0279 -39.0276 -13.5016 -13.4995 -13.4793 -13.4767
    -6.1944  -6.1917  -5.5610  -5.5580  -4.4136  -4.4116  -4.3790  -4.3771
    -4.1703  -4.1681  -3.2817  -3.2808  -0.0361  -0.0350   0.0123   0.0131
     1.8434   1.8444   2.0818   2.0844   3.9809   3.9953   5.4203

          k = 0.2500 0.5052 0.0000 ( 38019 PWs)   bands (ev):

   -74.8712 -74.8710 -48.1469 -48.1460 -48.1457 -48.1447 -48.1446 -48.1443
   -48.1435 -48.1430 -48.1193 -48.1186 -48.1182 -48.1181 -48.1177 -48.1174
   -48.1170 -48.1165 -48.1007 -48.1005 -48.0996 -48.0993 -39.2324 -39.2317
   -39.1609 -39.1602 -39.0242 -39.0239 -13.4025 -13.4000 -13.2649 -13.2625
    -6.3657  -6.3630  -5.5907  -5.5878  -4.8073  -4.8046  -4.3753  -4.3738
    -4.0456  -4.0439  -3.5447  -3.5436  -0.1481  -0.1477   0.4474   0.4477
     1.5637   1.5647   2.4184   2.4212   3.8665   3.8695   5.1147

          k = 0.2500 0.5774 0.0000 ( 38023 PWs)   bands (ev):

   -74.8709 -74.8708 -48.1467 -48.1458 -48.1456 -48.1446 -48.1445 -48.1444
   -48.1435 -48.1431 -48.1192 -48.1188 -48.1182 -48.1180 -48.1177 -48.1176
   -48.1171 -48.1165 -48.1006 -48.1005 -48.0996 -48.0993 -39.2319 -39.2313
   -39.1691 -39.1684 -39.0230 -39.0227 -13.3672 -13.3647 -13.1850 -13.1827
    -6.4238  -6.4210  -5.5979  -5.5951  -4.9754  -4.9726  -4.2104  -4.2090
    -4.2073  -4.2058  -3.5621  -3.5609  -0.2091  -0.2088   0.8049   0.8052
     1.2270   1.2287   2.7043   2.7056   3.6195   3.6220   5.0415

          k = 0.3125 0.5413 0.0000 ( 38095 PWs)   bands (ev):

   -74.8708 -74.8706 -48.1464 -48.1454 -48.1452 -48.1449 -48.1447 -48.1441
   -48.1438 -48.1434 -48.1190 -48.1187 -48.1186 -48.1179 -48.1177 -48.1176
   -48.1173 -48.1165 -48.1006 -48.1005 -48.0995 -48.0993 -39.2171 -39.2164
   -39.1883 -39.1876 -39.0223 -39.0220 -13.2799 -13.2775 -13.2179 -13.2154
    -6.1133  -6.1107  -5.6275  -5.6246  -5.4136  -5.4107  -4.2203  -4.2190
    -3.9249  -3.9234  -3.8937  -3.8927   0.2312   0.2320   0.4112   0.4113
     1.0789   1.0805   2.9085   2.9109   3.5409   3.5426   4.8453

     the Fermi energy is    -0.0067 ev

!    total energy              =   -3113.95867451 Ry
     total all-electron energy =    -83998.683239 Ry
     estimated scf accuracy    <       0.00000005 Ry
     smearing contrib. (-TS)   =       0.00046449 Ry
     internal energy E=F+TS    =   -3113.95913900 Ry

     The total energy is F=E-TS. E is the sum of the following terms:
     one-electron contribution =  -19794.47965098 Ry
     hartree contribution      =    9884.40402740 Ry
     xc contribution           =    -193.57607049 Ry
     ewald contribution        =    8751.00664697 Ry
     one-center paw contrib.   =   -1761.31409190 Ry

     convergence has been achieved in  29 iterations

     Writing all to output data dir ./tmp/cleave_025/wse2_cleave_025.save/ :
     XML data file, charge density, pseudopotentials, collected wavefunctions

     init_run     :     34.61s CPU     41.66s WALL (       1 calls)
     electrons    :   1608.61s CPU   1735.22s WALL (       1 calls)

     Called by init_run:
     wfcinit      :     21.07s CPU     25.33s WALL (       1 calls)
     potinit      :     12.20s CPU     14.63s WALL (       1 calls)
     hinit0       :      0.28s CPU      0.29s WALL (       1 calls)

     Called by electrons:
     c_bands      :   1351.97s CPU   1447.98s WALL (      30 calls)
     sum_band     :    177.96s CPU    197.51s WALL (      30 calls)
     v_of_rho     :     41.89s CPU     46.98s WALL (      30 calls)
     newd         :     22.49s CPU     27.88s WALL (      30 calls)
     PAW_pot      :      3.53s CPU      3.64s WALL (      30 calls)
     mix_rho      :     22.63s CPU     25.76s WALL (      30 calls)
     vdW_kernel   :     10.95s CPU     13.11s WALL (       1 calls)

     Called by c_bands:
     init_us_2    :      4.95s CPU      5.30s WALL (    1830 calls)
     cegterg      :   1320.17s CPU   1414.21s WALL (     900 calls)

     Called by *egterg:
     cdiaghg      :     17.57s CPU     19.41s WALL (    4224 calls)
     h_psi        :    580.68s CPU    629.68s WALL (    4284 calls)
     s_psi        :    102.23s CPU    107.79s WALL (    4284 calls)
     g_psi        :      1.10s CPU      1.25s WALL (    3354 calls)

     Called by h_psi:
     h_psi:calbec :    185.52s CPU    196.99s WALL (    4284 calls)
     vloc_psi     :    278.85s CPU    307.67s WALL (    4284 calls)
                                        0.00s GPU  (    4284 calls)
     add_vuspsi   :    114.83s CPU    123.47s WALL (    4284 calls)

     General routines
     calbec       :    264.58s CPU    281.64s WALL (    5184 calls)
     fft          :     23.62s CPU     25.18s WALL (    1889 calls)
     ffts         :      8.43s CPU      9.54s WALL (    3504 calls)
     fftw         :    321.42s CPU    356.20s WALL (  275464 calls)
     interpolate  :      0.48s CPU      0.54s WALL (      30 calls)

     Parallel routines

     PWSCF        :  27m24.42s CPU  29m38.34s WALL


   This run was terminated on:  19:47:34  18Jun2026            

=------------------------------------------------------------------------------=
   JOB DONE.
=------------------------------------------------------------------------------=
Note: The following floating-point exceptions are signalling: IEEE_UNDERFLOW_FLAG IEEE_DENORMAL
Note: The following floating-point exceptions are signalling: IEEE_UNDERFLOW_FLAG IEEE_DENORMAL
Note: The following floating-point exceptions are signalling: IEEE_UNDERFLOW_FLAG IEEE_DENORMAL
Note: The following floating-point exceptions are signalling: IEEE_UNDERFLOW_FLAG IEEE_DENORMAL
Note: The following floating-point exceptions are signalling: IEEE_UNDERFLOW_FLAG IEEE_DENORMAL
Note: The following floating-point exceptions are signalling: IEEE_UNDERFLOW_FLAG IEEE_DENORMAL
Note: The following floating-point exceptions are signalling: IEEE_UNDERFLOW_FLAG IEEE_DENORMAL
Note: The following floating-point exceptions are signalling: IEEE_UNDERFLOW_FLAG IEEE_DENORMAL
Note: The following floating-point exceptions are signalling: IEEE_UNDERFLOW_FLAG IEEE_DENORMAL
Note: The following floating-point exceptions are signalling: IEEE_UNDERFLOW_FLAG IEEE_DENORMAL
Note: The following floating-point exceptions are signalling: IEEE_UNDERFLOW_FLAG IEEE_DENORMAL
Note: The following floating-point exceptions are signalling: IEEE_UNDERFLOW_FLAG IEEE_DENORMAL
