
     Program PWSCF v.7.5 starts on 18Jun2026 at 15: 8:27 

     This program is part of the open-source Quantum ESPRESSO suite
     for quantum simulation of materials; please cite
         "P. Giannozzi et al., J. Phys.:Condens. Matter 21 395502 (2009);
         "P. Giannozzi et al., J. Phys.:Condens. Matter 29 465901 (2017);
         "P. Giannozzi et al., J. Chem. Phys. 152 154105 (2020);
          URL http://www.quantum-espresso.org", 
     in publications or presentations arising from this work. More details at
     http://www.quantum-espresso.org/quote

     Parallel version (MPI), running on    12 processors

     MPI processes distributed on     1 nodes
     27021 MiB available memory on the printing compute node when the environment starts

     Waiting for input...
     Reading input from standard input

     Current dimensions of program PWSCF are:
     Max number of different atomic species (ntypx) = 10
     Max number of k-points (npk) =  40000
     Max angular momentum in pseudopotentials (lmaxx) =  4
     file W.pbe-spn-kjpaw_psl.1.0.0.UPF: wavefunction(s)  6S 5P 5D renormalized
     file Se.pbe-dn-kjpaw_psl.1.0.0.UPF: wavefunction(s)  4S 4P 3D renormalized

     IMPORTANT: XC functional enforced from input :
     Exchange-correlation= VDW-DF2-B86R
                           (   1   4  26   0   2   0   0)
     Any further DFT definition will be discarded
     Please, verify this is what you really want


     R & G space division:  proc/nbgrp/npool/nimage =      12
     Subspace diagonalization in iterative solution of the eigenvalue problem:
     a serial algorithm will be used


     Parallelization info
     --------------------
     sticks:   dense  smooth     PW     G-vecs:    dense   smooth      PW
     Min         139      70     20                71489    25322    3895
     Max         140      71     22                71558    25395    3945
     Sum        1675     847    253               858263   304337   46813

     Using Slab Decomposition



     bravais-lattice index     =            4
     lattice parameter (alat)  =       6.1983  a.u.
     unit-cell volume          =    3143.7277 (a.u.)^3
     number of atoms/cell      =            6
     number of atomic types    =            2
     number of electrons       =        92.00
     number of Kohn-Sham states=           55
     kinetic-energy cutoff     =      80.0000  Ry
     charge density cutoff     =     640.0000  Ry
     scf convergence threshold =      1.0E-07
     mixing beta               =       0.1000
     number of iterations used =           12  local-TF  mixing
     Exchange-correlation= VDW-DF2-B86R
                           (   1   4  26   0   2   0   0)

     celldm(1)=   6.198302  celldm(2)=   0.000000  celldm(3)=  15.243902
     celldm(4)=   0.000000  celldm(5)=   0.000000  celldm(6)=   0.000000

     crystal axes: (cart. coord. in units of alat)
               a(1) = (   1.000000   0.000000   0.000000 )  
               a(2) = (  -0.500000   0.866025   0.000000 )  
               a(3) = (   0.000000   0.000000  15.243902 )  

     reciprocal axes: (cart. coord. in units 2 pi/alat)
               b(1) = (  1.000000  0.577350 -0.000000 )  
               b(2) = (  0.000000  1.154701  0.000000 )  
               b(3) = (  0.000000 -0.000000  0.065600 )  


     PseudoPot. # 1 for W  read from file:
     ./pseudo/W.pbe-spn-kjpaw_psl.1.0.0.UPF
     MD5 check sum: 03c3df5b60893f488392c7401945500a
     Pseudo is Projector augmented-wave + core cor, Zval = 14.0
     Generated using &quot;atomic&quot; code by A. Dal Corso  v.6.2.2
     Shape of augmentation charge: PSQ
     Using radial grid of 1273 points,  6 beta functions with: 
                l(1) =   0
                l(2) =   0
                l(3) =   1
                l(4) =   1
                l(5) =   2
                l(6) =   2
     Q(r) pseudized with 0 coefficients 


     PseudoPot. # 2 for Se read from file:
     ./pseudo/Se.pbe-dn-kjpaw_psl.1.0.0.UPF
     MD5 check sum: ac240dd2bae32a30e0bf3a38df9c8785
     Pseudo is Projector augmented-wave + core cor, Zval = 16.0
     Generated using &quot;atomic&quot; code by A. Dal Corso  v.6.3
     Shape of augmentation charge: PSQ
     Using radial grid of 1211 points,  6 beta functions with: 
                l(1) =   0
                l(2) =   0
                l(3) =   1
                l(4) =   1
                l(5) =   2
                l(6) =   2
     Q(r) pseudized with 0 coefficients 


     atomic species   valence    mass     pseudopotential
     W                14.00   183.84000     W ( 1.00)
     Se               16.00    78.96000     Se( 1.00)

      6 Sym. Ops. (no inversion) found



   Cartesian axes

     site n.     atom                  positions (alat units)
         1        Se     tau(   1) = (  -0.0000005   0.5773506   6.1149390  )
         2        W      tau(   2) = (   0.0000000   0.0000000   6.6383232  )
         3        Se     tau(   3) = (   0.5000005   0.2886748   7.1618445  )
         4        Se     tau(   4) = (  -0.0000005   0.5773506   8.8133384  )
         5        W      tau(   5) = (   0.5000005   0.2886748   9.3365854  )
         6        Se     tau(   6) = (   0.0000000   0.0000000   9.8606707  )

     number of k points=    30  Methfessel-Paxton smearing, width (Ry)=  0.0200
                       cart. coord. in units 2pi/alat
        k(    1) = (   0.0000000   0.0000000   0.0000000), wk =   0.0078125
        k(    2) = (   0.0000000   0.0721688   0.0000000), wk =   0.0468750
        k(    3) = (   0.0000000   0.1443376   0.0000000), wk =   0.0468750
        k(    4) = (   0.0000000   0.2165064   0.0000000), wk =   0.0468750
        k(    5) = (   0.0000000   0.2886751   0.0000000), wk =   0.0468750
        k(    6) = (   0.0000000   0.3608439   0.0000000), wk =   0.0468750
        k(    7) = (   0.0000000   0.4330127   0.0000000), wk =   0.0468750
        k(    8) = (   0.0000000   0.5051815   0.0000000), wk =   0.0468750
        k(    9) = (   0.0000000  -0.5773503   0.0000000), wk =   0.0234375
        k(   10) = (   0.0625000   0.1082532   0.0000000), wk =   0.0468750
        k(   11) = (   0.0625000   0.1804220   0.0000000), wk =   0.0937500
        k(   12) = (   0.0625000   0.2525907   0.0000000), wk =   0.0937500
        k(   13) = (   0.0625000   0.3247595   0.0000000), wk =   0.0937500
        k(   14) = (   0.0625000   0.3969283   0.0000000), wk =   0.0937500
        k(   15) = (   0.0625000   0.4690971   0.0000000), wk =   0.0937500
        k(   16) = (   0.0625000   0.5412659   0.0000000), wk =   0.0937500
        k(   17) = (   0.1250000   0.2165064   0.0000000), wk =   0.0468750
        k(   18) = (   0.1250000   0.2886751   0.0000000), wk =   0.0937500
        k(   19) = (   0.1250000   0.3608439   0.0000000), wk =   0.0937500
        k(   20) = (   0.1250000   0.4330127   0.0000000), wk =   0.0937500
        k(   21) = (   0.1250000   0.5051815   0.0000000), wk =   0.0937500
        k(   22) = (   0.1250000   0.5773503   0.0000000), wk =   0.0468750
        k(   23) = (   0.1875000   0.3247595   0.0000000), wk =   0.0468750
        k(   24) = (   0.1875000   0.3969283   0.0000000), wk =   0.0937500
        k(   25) = (   0.1875000   0.4690971   0.0000000), wk =   0.0937500
        k(   26) = (   0.1875000   0.5412659   0.0000000), wk =   0.0937500
        k(   27) = (   0.2500000   0.4330127   0.0000000), wk =   0.0468750
        k(   28) = (   0.2500000   0.5051815   0.0000000), wk =   0.0937500
        k(   29) = (   0.2500000   0.5773503   0.0000000), wk =   0.0468750
        k(   30) = (   0.3125000   0.5412659   0.0000000), wk =   0.0468750

     Dense  grid:   858263 G-vectors     FFT dimensions: (  50,  50, 768)

     Smooth grid:   304337 G-vectors     FFT dimensions: (  36,  36, 540)

     Estimated max dynamical RAM per process >     350.14 MB

     Estimated total dynamical RAM >       4.10 GB

     Initial potential from superposition of free atoms

     starting charge      91.9986, renormalised to      92.0000

     negative rho (up, down):  1.733E-04 0.000E+00


     %%%%%%%%%%%%%%%%%%%%%%%%%%%%%%%%%%%%%%%%%%%%%%%%%%%%%%%%%%%%%%%%%%%%%%%%
     %                                                                      %
     % You are using vdW-DF, which was implemented by the Thonhauser group. %
     % Please cite the following two papers that made this development      %
     % possible and the two reviews that describe the various versions:     %
     %                                                                      %
     %   T. Thonhauser et al., PRL 115, 136402 (2015).                      %
     %   T. Thonhauser et al., PRB 76, 125112 (2007).                       %
     %   K. Berland et al., Rep. Prog. Phys. 78, 066501 (2015).             %
     %   D.C. Langreth et al., J. Phys.: Condens. Matter 21, 084203 (2009). %
     %                                                                      %
     % If you are calculating stress with vdW-DF, please also cite:         %
     %                                                                      %
     %   R. Sabatini et al., J. Phys.: Condens. Matter 24, 424209 (2012).   %
     %                                                                      %
     %%%%%%%%%%%%%%%%%%%%%%%%%%%%%%%%%%%%%%%%%%%%%%%%%%%%%%%%%%%%%%%%%%%%%%%%

     %%%%%%%%%%%%%%%%%%%%%%%%%%%%%%%%%%%%%%%%%%%%%%%%%%%%%%%%%%%%%%%%%%%%%%%%
     %                                                                      %
     %  vdW-DF NEWS:                                                        %
     %                                                                      %
     %  * vdW-DF3 is now available. DOI: 10.1021/acs.jctc.0c00471           %
     %    use with input_dft = 'vdW-DF3-opt1' or 'vdW-DF3-opt2'             %
     %                                                                      %
     %  * Unscreened and range-separated hybrid vdW-DF-cx functionals       %
     %    DOI: 10.1063/1.4986522 and 10.1088/1361-648X/ac2ad2               %
     %    use with input_dft = 'vdW-DF-cx0'    and 'vdW-DF-ahcx'            %
     %  * Unscreened and range-separated hybrid vdW-DF2-b86r functionals    %
     %    DOI: 10.1063/1.4986522 and DOI: 10.1103/PhysRevX.12.041003        %
     %    use with input_dft = 'vdW-DF2-br0' and 'vdW-DF2-ahbr'             %
     %                                                                      %
     %%%%%%%%%%%%%%%%%%%%%%%%%%%%%%%%%%%%%%%%%%%%%%%%%%%%%%%%%%%%%%%%%%%%%%%%


     Starting wfcs are   62 randomized atomic wfcs
     Checking if some PAW data can be deallocated... 

     total cpu time spent up to now is       28.9 secs

     per-process dynamical memory:   142.9 Mb

     Self-consistent Calculation

     iteration #  1     ecut=    80.00 Ry     beta= 0.10
     Davidson diagonalization with overlap
     ethr =  1.00E-02,  avg # of iterations =  4.0

     Threshold (ethr) on eigenvalues was too large:
     Diagonalizing with lowered threshold

     Davidson diagonalization with overlap
     ethr =  1.08E-04,  avg # of iterations =  5.4

     negative rho (up, down):  8.016E-05 0.000E+00

     total cpu time spent up to now is      134.8 secs

     total energy              =   -3113.99488012 Ry
     estimated scf accuracy    <       0.12806822 Ry

     iteration #  2     ecut=    80.00 Ry     beta= 0.10
     Davidson diagonalization with overlap
     ethr =  1.39E-04,  avg # of iterations =  1.0

     negative rho (up, down):  3.069E-05 0.000E+00

     total cpu time spent up to now is      174.4 secs

     total energy              =   -3113.94748892 Ry
     estimated scf accuracy    <       0.11508254 Ry

     iteration #  3     ecut=    80.00 Ry     beta= 0.10
     Davidson diagonalization with overlap
     ethr =  1.25E-04,  avg # of iterations =  3.2

     negative rho (up, down):  1.112E-05 0.000E+00

     total cpu time spent up to now is      222.5 secs

     total energy              =   -3113.96433623 Ry
     estimated scf accuracy    <       0.01686350 Ry

     iteration #  4     ecut=    80.00 Ry     beta= 0.10
     Davidson diagonalization with overlap
     ethr =  1.83E-05,  avg # of iterations =  4.7

     negative rho (up, down):  5.678E-07 0.000E+00

     total cpu time spent up to now is      275.2 secs

     total energy              =   -3113.96170020 Ry
     estimated scf accuracy    <       0.01548817 Ry

     iteration #  5     ecut=    80.00 Ry     beta= 0.10
     Davidson diagonalization with overlap
     ethr =  1.68E-05,  avg # of iterations =  2.8

     negative rho (up, down):  3.997E-07 0.000E+00

     total cpu time spent up to now is      326.8 secs

     total energy              =   -3113.96270102 Ry
     estimated scf accuracy    <       0.00239057 Ry

     iteration #  6     ecut=    80.00 Ry     beta= 0.10
     Davidson diagonalization with overlap
     ethr =  2.60E-06,  avg # of iterations =  9.6

     negative rho (up, down):  2.442E-07 0.000E+00

     total cpu time spent up to now is      379.8 secs

     total energy              =   -3113.96180670 Ry
     estimated scf accuracy    <       0.00198520 Ry

     iteration #  7     ecut=    80.00 Ry     beta= 0.10
     Davidson diagonalization with overlap
     ethr =  2.16E-06,  avg # of iterations =  6.1

     negative rho (up, down):  1.755E-07 0.000E+00

     total cpu time spent up to now is      436.5 secs

     total energy              =   -3113.96194666 Ry
     estimated scf accuracy    <       0.00143350 Ry

     iteration #  8     ecut=    80.00 Ry     beta= 0.10
     Davidson diagonalization with overlap
     ethr =  1.56E-06,  avg # of iterations =  1.2

     negative rho (up, down):  1.259E-07 0.000E+00

     total cpu time spent up to now is      479.2 secs

     total energy              =   -3113.96194319 Ry
     estimated scf accuracy    <       0.00068012 Ry

     iteration #  9     ecut=    80.00 Ry     beta= 0.10
     Davidson diagonalization with overlap
     ethr =  7.39E-07,  avg # of iterations =  1.5

     negative rho (up, down):  1.324E-07 0.000E+00

     total cpu time spent up to now is      523.5 secs

     total energy              =   -3113.96195342 Ry
     estimated scf accuracy    <       0.00056039 Ry

     iteration # 10     ecut=    80.00 Ry     beta= 0.10
     Davidson diagonalization with overlap
     ethr =  6.09E-07,  avg # of iterations =  1.3

     negative rho (up, down):  2.267E-08 0.000E+00

     total cpu time spent up to now is      566.2 secs

     total energy              =   -3113.96194745 Ry
     estimated scf accuracy    <       0.00054291 Ry

     iteration # 11     ecut=    80.00 Ry     beta= 0.10
     Davidson diagonalization with overlap
     ethr =  5.90E-07,  avg # of iterations =  1.4

     negative rho (up, down):  2.939E-04 0.000E+00

     total cpu time spent up to now is      609.6 secs

     total energy              =   -3113.96189238 Ry
     estimated scf accuracy    <       0.00046273 Ry

     iteration # 12     ecut=    80.00 Ry     beta= 0.10
     Davidson diagonalization with overlap
     ethr =  5.03E-07,  avg # of iterations =  5.8

     negative rho (up, down):  2.231E-04 0.000E+00

     total cpu time spent up to now is      661.4 secs

     total energy              =   -3113.96192960 Ry
     estimated scf accuracy    <       0.00054458 Ry

     iteration # 13     ecut=    80.00 Ry     beta= 0.10
     Davidson diagonalization with overlap
     ethr =  5.03E-07,  avg # of iterations =  1.0

     negative rho (up, down):  3.481E-03 0.000E+00

     total cpu time spent up to now is      702.6 secs

     total energy              =   -3113.96185135 Ry
     estimated scf accuracy    <       0.00049053 Ry

     iteration # 14     ecut=    80.00 Ry     beta= 0.10
     Davidson diagonalization with overlap
     ethr =  5.03E-07,  avg # of iterations =  5.8

     negative rho (up, down):  3.469E-03 0.000E+00

     total cpu time spent up to now is      752.7 secs

     total energy              =   -3113.96186229 Ry
     estimated scf accuracy    <       0.00032123 Ry

     iteration # 15     ecut=    80.00 Ry     beta= 0.10
     Davidson diagonalization with overlap
     ethr =  3.49E-07,  avg # of iterations =  1.0

     negative rho (up, down):  3.415E-03 0.000E+00

     total cpu time spent up to now is      794.1 secs

     total energy              =   -3113.96186156 Ry
     estimated scf accuracy    <       0.00019066 Ry

     iteration # 16     ecut=    80.00 Ry     beta= 0.10
     Davidson diagonalization with overlap
     ethr =  2.07E-07,  avg # of iterations =  1.7

     negative rho (up, down):  4.014E-03 0.000E+00

     total cpu time spent up to now is      839.1 secs

     total energy              =   -3113.96186373 Ry
     estimated scf accuracy    <       0.00018630 Ry

     iteration # 17     ecut=    80.00 Ry     beta= 0.10
     Davidson diagonalization with overlap
     ethr =  2.02E-07,  avg # of iterations =  1.3

     negative rho (up, down):  2.830E-03 0.000E+00

     total cpu time spent up to now is      880.3 secs

     total energy              =   -3113.96183096 Ry
     estimated scf accuracy    <       0.00011857 Ry

     iteration # 18     ecut=    80.00 Ry     beta= 0.10
     Davidson diagonalization with overlap
     ethr =  1.29E-07,  avg # of iterations =  4.4

     negative rho (up, down):  2.428E-03 0.000E+00

     total cpu time spent up to now is      927.9 secs

     total energy              =   -3113.96184536 Ry
     estimated scf accuracy    <       0.00010331 Ry

     iteration # 19     ecut=    80.00 Ry     beta= 0.10
     Davidson diagonalization with overlap
     ethr =  1.12E-07,  avg # of iterations =  2.8

     negative rho (up, down):  2.635E-03 0.000E+00

     total cpu time spent up to now is      974.9 secs

     total energy              =   -3113.96180640 Ry
     estimated scf accuracy    <       0.00008699 Ry

     iteration # 20     ecut=    80.00 Ry     beta= 0.10
     Davidson diagonalization with overlap
     ethr =  9.46E-08,  avg # of iterations =  2.7

     negative rho (up, down):  2.576E-03 0.000E+00

     total cpu time spent up to now is     1023.5 secs

     total energy              =   -3113.96181936 Ry
     estimated scf accuracy    <       0.00005825 Ry

     iteration # 21     ecut=    80.00 Ry     beta= 0.10
     Davidson diagonalization with overlap
     ethr =  6.33E-08,  avg # of iterations =  1.4

     negative rho (up, down):  2.561E-03 0.000E+00

     total cpu time spent up to now is     1067.5 secs

     total energy              =   -3113.96181407 Ry
     estimated scf accuracy    <       0.00006024 Ry

     iteration # 22     ecut=    80.00 Ry     beta= 0.10
     Davidson diagonalization with overlap
     ethr =  6.33E-08,  avg # of iterations =  2.2

     negative rho (up, down):  2.430E-03 0.000E+00

     total cpu time spent up to now is     1136.2 secs

     total energy              =   -3113.96181674 Ry
     estimated scf accuracy    <       0.00001409 Ry

     iteration # 23     ecut=    80.00 Ry     beta= 0.10
     Davidson diagonalization with overlap
     ethr =  1.53E-08,  avg # of iterations =  2.0

     negative rho (up, down):  9.302E-04 0.000E+00

     total cpu time spent up to now is     1222.4 secs

     total energy              =   -3113.96181614 Ry
     estimated scf accuracy    <       0.00001037 Ry

     iteration # 24     ecut=    80.00 Ry     beta= 0.10
     Davidson diagonalization with overlap
     ethr =  1.13E-08,  avg # of iterations =  5.7

     negative rho (up, down):  9.331E-04 0.000E+00

     total cpu time spent up to now is     1321.6 secs

     total energy              =   -3113.96181558 Ry
     estimated scf accuracy    <       0.00000187 Ry

     iteration # 25     ecut=    80.00 Ry     beta= 0.10
     Davidson diagonalization with overlap
     ethr =  2.04E-09,  avg # of iterations =  1.9

     negative rho (up, down):  8.026E-04 0.000E+00

     total cpu time spent up to now is     1402.5 secs

     total energy              =   -3113.96181639 Ry
     estimated scf accuracy    <       0.00000127 Ry

     iteration # 26     ecut=    80.00 Ry     beta= 0.10
     Davidson diagonalization with overlap
     ethr =  1.38E-09,  avg # of iterations =  2.0

     negative rho (up, down):  3.100E-04 0.000E+00

     total cpu time spent up to now is     1491.0 secs

     total energy              =   -3113.96181689 Ry
     estimated scf accuracy    <       0.00000125 Ry

     iteration # 27     ecut=    80.00 Ry     beta= 0.10
     Davidson diagonalization with overlap
     ethr =  1.36E-09,  avg # of iterations =  2.4

     negative rho (up, down):  2.830E-04 0.000E+00

     total cpu time spent up to now is     1571.7 secs

     total energy              =   -3113.96181708 Ry
     estimated scf accuracy    <       0.00000108 Ry

     iteration # 28     ecut=    80.00 Ry     beta= 0.10
     Davidson diagonalization with overlap
     ethr =  1.18E-09,  avg # of iterations =  2.0

     negative rho (up, down):  1.713E-04 0.000E+00

     total cpu time spent up to now is     1648.8 secs

     End of self-consistent calculation

          k = 0.0000 0.0000 0.0000 ( 38015 PWs)   bands (ev):

   -74.8852 -74.8848 -48.1516 -48.1516 -48.1508 -48.1508 -48.1500 -48.1500
   -48.1485 -48.1485 -48.1212 -48.1212 -48.1204 -48.1204 -48.1193 -48.1193
   -48.1179 -48.1179 -48.1072 -48.1064 -48.1051 -48.1038 -39.0781 -39.0776
   -39.0432 -39.0432 -39.0424 -39.0424 -15.5143 -15.5112 -14.4438 -14.4413
    -6.9861  -6.9650  -3.3894  -3.3559  -3.3559  -3.3512  -3.3512  -3.2822
    -1.3742  -1.2784  -0.6920  -0.6920  -0.6898  -0.6898   0.2051   0.2051
     0.2073   0.2073   3.1450   3.4074   3.4074   3.4095   3.4095

          k = 0.0000 0.0722 0.0000 ( 37975 PWs)   bands (ev):

   -74.8848 -74.8844 -48.1516 -48.1515 -48.1508 -48.1507 -48.1500 -48.1498
   -48.1485 -48.1484 -48.1212 -48.1212 -48.1205 -48.1204 -48.1193 -48.1193
   -48.1179 -48.1179 -48.1071 -48.1063 -48.1050 -48.1037 -39.0763 -39.0757
   -39.0523 -39.0515 -39.0453 -39.0445 -15.4532 -15.4501 -14.4157 -14.4133
    -6.9037  -6.8826  -3.8629  -3.8235  -3.3212  -3.3165  -2.9573  -2.8916
    -1.4339  -1.3671  -0.9862  -0.9680  -0.9209  -0.9185   0.1807   0.2052
     0.4064   0.4082   3.0202   3.0819   3.3352   3.3656   3.3678

          k = 0.0000 0.1443 0.0000 ( 37895 PWs)   bands (ev):

   -74.8837 -74.8833 -48.1516 -48.1509 -48.1508 -48.1501 -48.1500 -48.1493
   -48.1485 -48.1478 -48.1214 -48.1213 -48.1207 -48.1205 -48.1195 -48.1193
   -48.1181 -48.1179 -48.1068 -48.1060 -48.1047 -48.1035 -39.0781 -39.0773
   -39.0710 -39.0705 -39.0514 -39.0506 -15.2742 -15.2711 -14.3337 -14.3313
    -6.6640  -6.6428  -4.3618  -4.3330  -3.2381  -3.2335  -2.7318  -2.6726
    -2.0448  -2.0325  -1.3044  -1.3017  -1.2249  -1.1625   0.1654   0.2213
     0.7103   0.7117   2.4355   2.5385   3.2891   3.2915   3.6779

          k = 0.0000 0.2165 0.0000 ( 37851 PWs)   bands (ev):

   -74.8820 -74.8816 -48.1516 -48.1508 -48.1501 -48.1500 -48.1493 -48.1485
   -48.1485 -48.1470 -48.1218 -48.1214 -48.1210 -48.1206 -48.1198 -48.1194
   -48.1184 -48.1180 -48.1065 -48.1057 -48.1044 -48.1031 -39.1164 -39.1156
   -39.0634 -39.0628 -39.0604 -39.0596 -14.9908 -14.9878 -14.2042 -14.2019
    -6.2961  -6.2753  -4.8099  -4.7890  -3.3004  -3.2950  -3.1750  -3.1705
    -2.4744  -2.4215  -1.5969  -1.5941  -1.3515  -1.3125   0.1925   0.2686
     0.9129   0.9141   2.0979   2.2564   3.2623   3.2652   4.0801

          k = 0.0000 0.2887 0.0000 ( 37919 PWs)   bands (ev):

   -74.8799 -74.8796 -48.1516 -48.1508 -48.1500 -48.1493 -48.1486 -48.1485
   -48.1477 -48.1462 -48.1222 -48.1215 -48.1214 -48.1207 -48.1201 -48.1195
   -48.1187 -48.1181 -48.1060 -48.1052 -48.1039 -48.1026 -39.1613 -39.1605
   -39.0710 -39.0702 -39.0542 -39.0537 -14.6299 -14.6270 -14.0360 -14.0337
    -5.9036  -5.8858  -5.1238  -5.1077  -4.3574  -4.3535  -3.2205  -3.2162
    -2.6379  -2.5995  -1.6946  -1.6916  -1.6459  -1.6261   0.3466   0.4284
     1.0175   1.0187   2.2104   2.4219   3.3072   3.3107   4.5327

          k = 0.0000 0.3608 0.0000 ( 37933 PWs)   bands (ev):

   -74.8779 -74.8776 -48.1517 -48.1509 -48.1500 -48.1485 -48.1484 -48.1476
   -48.1468 -48.1453 -48.1225 -48.1217 -48.1217 -48.1209 -48.1204 -48.1195
   -48.1190 -48.1182 -48.1056 -48.1048 -48.1035 -48.1022 -39.2058 -39.2050
   -39.0816 -39.0808 -39.0451 -39.0446 -14.2453 -14.2425 -13.8309 -13.8286
    -5.9091  -5.9025  -5.3359  -5.3284  -4.9232  -4.9063  -3.3695  -3.3654
    -2.9759  -2.9536  -1.9481  -1.9325  -1.6340  -1.6310   0.6909   0.7632
     1.1106   1.1119   2.6381   2.8776   3.3807   3.3850   4.9384

          k = 0.0000 0.4330 0.0000 ( 37998 PWs)   bands (ev):

   -74.8762 -74.8759 -48.1517 -48.1509 -48.1500 -48.1485 -48.1477 -48.1469
   -48.1461 -48.1446 -48.1229 -48.1221 -48.1218 -48.1210 -48.1206 -48.1196
   -48.1193 -48.1183 -48.1052 -48.1044 -48.1031 -48.1018 -39.2433 -39.2425
   -39.0906 -39.0898 -39.0373 -39.0368 -13.9407 -13.9379 -13.5678 -13.5656
    -6.5217  -6.5187  -5.6058  -5.5972  -4.6976  -4.6865  -3.5340  -3.5301
    -3.2669  -3.2485  -2.1332  -2.1215  -1.5385  -1.5356   1.1659   1.2204
     1.2494   1.2508   3.1585   3.3560   3.4423   3.4473   4.5285

          k = 0.0000 0.5052 0.0000 ( 38048 PWs)   bands (ev):

   -74.8751 -74.8747 -48.1518 -48.1510 -48.1500 -48.1485 -48.1472 -48.1464
   -48.1456 -48.1441 -48.1231 -48.1223 -48.1218 -48.1210 -48.1207 -48.1197
   -48.1194 -48.1183 -48.1050 -48.1042 -48.1029 -48.1016 -39.2682 -39.2674
   -39.0965 -39.0958 -39.0321 -39.0316 -13.7791 -13.7763 -13.2994 -13.2974
    -7.0858  -7.0827  -5.6221  -5.6163  -4.7703  -4.7647  -3.6508  -3.6469
    -3.1989  -3.1819  -2.2489  -2.2416  -1.4770  -1.4743   1.3987   1.4004
     1.6487   1.6820   3.4143   3.4784   3.4807   3.4840   4.3998

          k = 0.0000-0.5774 0.0000 ( 38024 PWs)   bands (ev):

   -74.8747 -74.8743 -48.1518 -48.1510 -48.1500 -48.1485 -48.1470 -48.1462
   -48.1454 -48.1439 -48.1232 -48.1224 -48.1219 -48.1211 -48.1208 -48.1197
   -48.1195 -48.1183 -48.1049 -48.1041 -48.1028 -48.1015 -39.2770 -39.2761
   -39.0986 -39.0979 -39.0303 -39.0298 -13.7293 -13.7265 -13.1850 -13.1830
    -7.2986  -7.2954  -5.5854  -5.5826  -4.8925  -4.8867  -3.6921  -3.6882
    -3.0810  -3.0680  -2.3010  -2.2954  -1.4580  -1.4553   1.4653   1.4671
     1.8816   1.8958   3.4438   3.4899   3.4943   3.4957   4.1547

          k = 0.0625 0.1083 0.0000 ( 37895 PWs)   bands (ev):

   -74.8840 -74.8837 -48.1516 -48.1511 -48.1508 -48.1503 -48.1500 -48.1495
   -48.1485 -48.1480 -48.1214 -48.1212 -48.1206 -48.1205 -48.1194 -48.1193
   -48.1181 -48.1179 -48.1069 -48.1061 -48.1048 -48.1035 -39.0728 -39.0723
   -39.0694 -39.0686 -39.0496 -39.0489 -15.3331 -15.3300 -14.3607 -14.3583
    -6.7422  -6.7210  -4.2286  -4.1972  -3.2700  -3.2654  -2.7569  -2.6912
    -1.7852  -1.7735  -1.3150  -1.3096  -1.1343  -1.0724   0.2393   0.2850
     0.5588   0.5602   2.6601   2.7494   3.2207   3.2311   3.5893

          k = 0.0625 0.1804 0.0000 ( 37885 PWs)   bands (ev):

   -74.8826 -74.8822 -48.1516 -48.1508 -48.1505 -48.1500 -48.1497 -48.1489
   -48.1485 -48.1474 -48.1217 -48.1213 -48.1209 -48.1206 -48.1197 -48.1194
   -48.1183 -48.1180 -48.1066 -48.1058 -48.1045 -48.1032 -39.1008 -39.1000
   -39.0665 -39.0660 -39.0578 -39.0570 -15.1015 -15.0984 -14.2551 -14.2528
    -6.4343  -6.4132  -4.6561  -4.6327  -3.2613  -3.2570  -2.8178  -2.7909
    -2.4804  -2.4546  -1.6616  -1.6486  -1.1653  -1.1099   0.2938   0.3505
     0.6592   0.6725   2.3572   2.4862   3.0753   3.0841   3.9398

          k = 0.0625 0.2526 0.0000 ( 37916 PWs)   bands (ev):

   -74.8808 -74.8804 -48.1515 -48.1508 -48.1500 -48.1497 -48.1489 -48.1485
   -48.1481 -48.1466 -48.1220 -48.1215 -48.1212 -48.1207 -48.1199 -48.1195
   -48.1186 -48.1181 -48.1062 -48.1054 -48.1041 -48.1028 -39.1414 -39.1406
   -39.0688 -39.0681 -39.0578 -39.0572 -14.7774 -14.7745 -14.1071 -14.1048
    -6.0280  -6.0079  -5.0262  -5.0088  -3.9019  -3.8988  -3.2009  -3.1951
    -2.6138  -2.5830  -1.9212  -1.9095  -1.2235  -1.1914   0.2488   0.3075
     0.8563   0.8891   2.2766   2.4306   3.0750   3.1061   4.3579

          k = 0.0625 0.3248 0.0000 ( 37964 PWs)   bands (ev):

   -74.8787 -74.8784 -48.1516 -48.1508 -48.1499 -48.1488 -48.1485 -48.1480
   -48.1472 -48.1458 -48.1224 -48.1216 -48.1216 -48.1208 -48.1202 -48.1196
   -48.1189 -48.1182 -48.1058 -48.1050 -48.1037 -48.1024 -39.1851 -39.1843
   -39.0804 -39.0796 -39.0487 -39.0482 -14.3978 -14.3950 -13.9248 -13.9225
    -5.7528  -5.7400  -5.1937  -5.1806  -4.8277  -4.8198  -3.4337  -3.4281
    -2.7223  -2.7008  -2.2467  -2.2427  -1.2734  -1.2554   0.3631   0.4201
     1.1133   1.1421   2.4349   2.5909   3.1933   3.2682   4.8312

          k = 0.0625 0.3969 0.0000 ( 37981 PWs)   bands (ev):

   -74.8769 -74.8765 -48.1516 -48.1508 -48.1499 -48.1484 -48.1480 -48.1472
   -48.1464 -48.1450 -48.1227 -48.1219 -48.1217 -48.1209 -48.1205 -48.1196
   -48.1191 -48.1183 -48.1054 -48.1046 -48.1033 -48.1020 -39.2251 -39.2243
   -39.0911 -39.0903 -39.0403 -39.0398 -14.0402 -14.0375 -13.6985 -13.6962
    -6.1348  -6.1316  -5.5147  -5.5059  -4.7749  -4.7592  -3.6827  -3.6769
    -2.9842  -2.9720  -2.4761  -2.4708  -1.2635  -1.2532   0.6636   0.7059
     1.3859   1.4082   2.7439   2.8470   3.3857   3.5174   4.9236

          k = 0.0625 0.4691 0.0000 ( 38057 PWs)   bands (ev):

   -74.8755 -74.8751 -48.1517 -48.1508 -48.1499 -48.1484 -48.1475 -48.1467
   -48.1459 -48.1444 -48.1230 -48.1222 -48.1218 -48.1210 -48.1207 -48.1197
   -48.1193 -48.1184 -48.1051 -48.1043 -48.1030 -48.1017 -39.2556 -39.2547
   -39.0993 -39.0985 -39.0338 -39.0333 -13.8125 -13.8097 -13.4185 -13.4164
    -6.7872  -6.7842  -5.6177  -5.6106  -4.6561  -4.6489  -3.7969  -3.7909
    -3.1520  -3.1399  -2.5724  -2.5678  -1.2659  -1.2606   1.0497   1.0734
     1.6596   1.6785   3.0013   3.0421   3.5723   3.6552   4.5742

          k = 0.0625 0.5413 0.0000 ( 38034 PWs)   bands (ev):

   -74.8747 -74.8743 -48.1517 -48.1508 -48.1498 -48.1484 -48.1471 -48.1463
   -48.1455 -48.1441 -48.1232 -48.1223 -48.1219 -48.1211 -48.1208 -48.1197
   -48.1194 -48.1184 -48.1049 -48.1041 -48.1028 -48.1015 -39.2720 -39.2711
   -39.1038 -39.1030 -39.0303 -39.0298 -13.7129 -13.7101 -13.2120 -13.2099
    -7.1865  -7.1834  -5.5905  -5.5867  -4.8132  -4.8076  -3.8054  -3.8015
    -3.0744  -3.0630  -2.6219  -2.6191  -1.2918  -1.2885   1.3642   1.3712
     1.8342   1.8479   3.1716   3.1855   3.5015   3.5552   4.4496

          k = 0.1250 0.2165 0.0000 ( 37933 PWs)   bands (ev):

   -74.8810 -74.8807 -48.1515 -48.1507 -48.1499 -48.1499 -48.1491 -48.1484
   -48.1483 -48.1468 -48.1219 -48.1214 -48.1212 -48.1207 -48.1199 -48.1195
   -48.1185 -48.1181 -48.1063 -48.1055 -48.1042 -48.1029 -39.1331 -39.1323
   -39.0695 -39.0687 -39.0589 -39.0583 -14.8279 -14.8250 -14.1316 -14.1293
    -6.0729  -6.0522  -4.9786  -4.9604  -3.7359  -3.7326  -2.9894  -2.9642
    -2.8985  -2.8950  -1.9239  -1.8995  -1.0613  -1.0128   0.2678   0.2890
     0.6700   0.7389   2.5977   2.6923   2.6946   2.7757   4.3022

          k = 0.1250 0.2887 0.0000 ( 37936 PWs)   bands (ev):

   -74.8792 -74.8788 -48.1514 -48.1506 -48.1498 -48.1492 -48.1484 -48.1483
   -48.1476 -48.1461 -48.1223 -48.1216 -48.1215 -48.1208 -48.1201 -48.1196
   -48.1188 -48.1182 -48.1059 -48.1051 -48.1038 -48.1025 -39.1704 -39.1696
   -39.0833 -39.0825 -39.0506 -39.0501 -14.4788 -14.4760 -13.9733 -13.9710
    -5.6563  -5.6385  -5.2340  -5.2198  -4.5444  -4.5407  -3.4427  -3.4323
    -2.9759  -2.9709  -2.2033  -2.1885  -0.9425  -0.9072   0.0773   0.1163
     1.0566   1.1158   2.3810   2.4108   2.9595   3.1452   4.7455

          k = 0.1250 0.3608 0.0000 ( 38000 PWs)   bands (ev):

   -74.8773 -74.8770 -48.1513 -48.1505 -48.1497 -48.1485 -48.1482 -48.1477
   -48.1469 -48.1454 -48.1226 -48.1218 -48.1217 -48.1209 -48.1203 -48.1197
   -48.1190 -48.1184 -48.1055 -48.1047 -48.1034 -48.1021 -39.2072 -39.2063
   -39.0974 -39.0966 -39.0422 -39.0417 -14.1038 -14.1011 -13.7856 -13.7833
    -5.7212  -5.7162  -5.3716  -5.3647  -4.9089  -4.8904  -3.8284  -3.8216
    -3.0793  -3.0752  -2.6347  -2.6279  -0.8578  -0.8350   0.1864   0.2280
     1.4541   1.4908   2.2966   2.3347   3.3179   3.5186   5.2283

          k = 0.1250 0.4330 0.0000 ( 38048 PWs)   bands (ev):

   -74.8758 -74.8754 -48.1513 -48.1505 -48.1496 -48.1481 -48.1479 -48.1471
   -48.1463 -48.1448 -48.1229 -48.1221 -48.1219 -48.1211 -48.1206 -48.1198
   -48.1192 -48.1184 -48.1051 -48.1044 -48.1030 -48.1018 -39.2380 -39.2372
   -39.1095 -39.1087 -39.0351 -39.0346 -13.8109 -13.8082 -13.5413 -13.5390
    -6.3530  -6.3500  -5.5643  -5.5568  -4.5618  -4.5496  -4.0787  -4.0714
    -3.2084  -3.2056  -3.0044  -2.9983  -0.8731  -0.8600   0.5436   0.5766
     1.7509   1.7669   2.4007   2.4383   3.6374   3.7872   5.0677

          k = 0.1250 0.5052 0.0000 ( 38027 PWs)   bands (ev):

   -74.8747 -74.8743 -48.1513 -48.1505 -48.1495 -48.1480 -48.1475 -48.1467
   -48.1459 -48.1444 -48.1230 -48.1222 -48.1220 -48.1212 -48.1207 -48.1199
   -48.1194 -48.1185 -48.1049 -48.1041 -48.1028 -48.1015 -39.2585 -39.2577
   -39.1176 -39.1168 -39.0303 -39.0299 -13.6649 -13.6622 -13.2849 -13.2827
    -6.8736  -6.8706  -5.5863  -5.5815  -4.6199  -4.6144  -4.0442  -4.0378
    -3.2973  -3.2949  -3.1088  -3.1014  -0.9585  -0.9508   1.0051   1.0251
     1.8374   1.8439   2.6028   2.6306   3.6787   3.7360   4.8824

          k = 0.1250 0.5774 0.0000 ( 37968 PWs)   bands (ev):

   -74.8743 -74.8740 -48.1513 -48.1504 -48.1494 -48.1480 -48.1473 -48.1465
   -48.1457 -48.1442 -48.1231 -48.1223 -48.1220 -48.1212 -48.1207 -48.1199
   -48.1194 -48.1185 -48.1048 -48.1040 -48.1027 -48.1014 -39.2657 -39.2648
   -39.1204 -39.1196 -39.0287 -39.0282 -13.6201 -13.6174 -13.1774 -13.1753
    -7.0667  -7.0637  -5.5691  -5.5665  -4.7256  -4.7200  -4.0216  -4.0174
    -3.3167  -3.3150  -3.0769  -3.0701  -1.0097  -1.0030   1.3069   1.3113
     1.7456   1.7531   2.7521   2.7557   3.5479   3.6056   4.8981

          k = 0.1875 0.3248 0.0000 ( 37987 PWs)   bands (ev):

   -74.8775 -74.8771 -48.1512 -48.1504 -48.1495 -48.1487 -48.1481 -48.1479
   -48.1471 -48.1456 -48.1226 -48.1218 -48.1217 -48.1209 -48.1203 -48.1198
   -48.1189 -48.1184 -48.1055 -48.1047 -48.1034 -48.1021 -39.1991 -39.1982
   -39.1014 -39.1006 -39.0429 -39.0424 -14.1258 -14.1231 -13.8159 -13.8135
    -5.4207  -5.4110  -5.3950  -5.3909  -4.9852  -4.9682  -3.8313  -3.8223
    -3.3851  -3.3819  -2.5130  -2.5068  -0.6101  -0.5783  -0.0797  -0.0420
     1.4550   1.5019   2.1162   2.1307   3.3009   3.5186   5.2106

          k = 0.1875 0.3969 0.0000 ( 38014 PWs)   bands (ev):

   -74.8759 -74.8755 -48.1510 -48.1502 -48.1492 -48.1482 -48.1478 -48.1474
   -48.1466 -48.1452 -48.1228 -48.1220 -48.1219 -48.1211 -48.1205 -48.1199
   -48.1191 -48.1185 -48.1052 -48.1044 -48.1031 -48.1018 -39.2237 -39.2229
   -39.1198 -39.1190 -39.0358 -39.0353 -13.7829 -13.7803 -13.6359 -13.6336
    -5.9353  -5.9325  -5.5175  -5.5100  -4.6112  -4.5940  -4.1830  -4.1763
    -3.7293  -3.7265  -2.9142  -2.9124  -0.4393  -0.4185   0.0675   0.0996
     1.7808   1.8059   2.0246   2.0521   3.6686   3.8492   5.5771

          k = 0.1875 0.4691 0.0000 ( 38010 PWs)   bands (ev):

   -74.8747 -74.8743 -48.1508 -48.1500 -48.1490 -48.1479 -48.1476 -48.1471
   -48.1463 -48.1448 -48.1229 -48.1221 -48.1220 -48.1212 -48.1206 -48.1200
   -48.1193 -48.1186 -48.1049 -48.1041 -48.1028 -48.1015 -39.2417 -39.2408
   -39.1348 -39.1340 -39.0304 -39.0299 -13.5893 -13.5867 -13.3846 -13.3823
    -6.4502  -6.4473  -5.5669  -5.5619  -4.4348  -4.4295  -4.2389  -4.2282
    -3.9809  -3.9782  -3.2121  -3.2100  -0.5296  -0.5177   0.5139   0.5347
     1.8488   1.8566   2.1853   2.2233   3.8577   3.9357   5.2125

          k = 0.1875 0.5413 0.0000 ( 38010 PWs)   bands (ev):

   -74.8740 -74.8737 -48.1507 -48.1499 -48.1489 -48.1477 -48.1475 -48.1469
   -48.1461 -48.1447 -48.1230 -48.1222 -48.1221 -48.1213 -48.1207 -48.1200
   -48.1194 -48.1187 -48.1048 -48.1040 -48.1027 -48.1014 -39.2510 -39.2502
   -39.1431 -39.1423 -39.0274 -39.0269 -13.5108 -13.5081 -13.2009 -13.1987
    -6.7498  -6.7468  -5.5736  -5.5705  -4.5660  -4.5611  -4.1725  -4.1677
    -4.0585  -4.0563  -3.2655  -3.2621  -0.6365  -0.6280   0.9898   0.9987
     1.6203   1.6237   2.4677   2.4949   3.6692   3.7206   5.2136

          k = 0.2500 0.4330 0.0000 ( 38031 PWs)   bands (ev):

   -74.8747 -74.8743 -48.1506 -48.1497 -48.1488 -48.1481 -48.1475 -48.1472
   -48.1465 -48.1451 -48.1229 -48.1221 -48.1220 -48.1213 -48.1206 -48.1201
   -48.1193 -48.1187 -48.1049 -48.1041 -48.1028 -48.1016 -39.2328 -39.2320
   -39.1438 -39.1429 -39.0304 -39.0299 -13.5031 -13.5006 -13.4806 -13.4781
    -6.1961  -6.1934  -5.5639  -5.5590  -4.4161  -4.4125  -4.3825  -4.3756
    -4.1754  -4.1656  -3.2830  -3.2812  -0.0516  -0.0283   0.0078   0.0162
     1.8321   1.8480   2.0608   2.0973   3.9321   4.0263   5.3964

          k = 0.2500 0.5052 0.0000 ( 38019 PWs)   bands (ev):

   -74.8739 -74.8735 -48.1502 -48.1494 -48.1485 -48.1480 -48.1474 -48.1469
   -48.1465 -48.1451 -48.1229 -48.1222 -48.1221 -48.1214 -48.1207 -48.1201
   -48.1194 -48.1188 -48.1047 -48.1040 -48.1027 -48.1014 -39.2350 -39.2342
   -39.1636 -39.1627 -39.0267 -39.0263 -13.4038 -13.4013 -13.2662 -13.2639
    -6.3675  -6.3647  -5.5929  -5.5895  -4.8091  -4.8063  -4.3785  -4.3728
    -4.0491  -4.0422  -3.5458  -3.5444  -0.1556  -0.1450   0.4417   0.4488
     1.5607   1.5625   2.3896   2.4395   3.8495   3.8741   5.1134

          k = 0.2500 0.5774 0.0000 ( 38023 PWs)   bands (ev):

   -74.8736 -74.8732 -48.1501 -48.1492 -48.1484 -48.1480 -48.1475 -48.1467
   -48.1466 -48.1451 -48.1228 -48.1223 -48.1221 -48.1215 -48.1207 -48.1202
   -48.1194 -48.1188 -48.1047 -48.1039 -48.1026 -48.1013 -39.2346 -39.2337
   -39.1717 -39.1709 -39.0255 -39.0250 -13.3686 -13.3660 -13.1863 -13.1840
    -6.4256  -6.4227  -5.5998  -5.5969  -4.9773  -4.9744  -4.2136  -4.2115
    -4.2079  -4.2033  -3.5629  -3.5617  -0.2155  -0.2070   0.8010   0.8045
     1.2241   1.2267   2.6881   2.7113   3.5996   3.6296   5.0324

          k = 0.3125 0.5413 0.0000 ( 38095 PWs)   bands (ev):

   -74.8735 -74.8731 -48.1497 -48.1488 -48.1486 -48.1478 -48.1477 -48.1469
   -48.1463 -48.1455 -48.1228 -48.1224 -48.1220 -48.1216 -48.1208 -48.1202
   -48.1194 -48.1189 -48.1047 -48.1039 -48.1026 -48.1013 -39.2197 -39.2189
   -39.1909 -39.1901 -39.0248 -39.0243 -13.2813 -13.2788 -13.2192 -13.2168
    -6.1151  -6.1123  -5.6295  -5.6265  -5.4154  -5.4125  -4.2233  -4.2183
    -3.9268  -3.9231  -3.8960  -3.8920   0.2232   0.2348   0.4059   0.4122
     1.0763   1.0783   2.8806   2.9282   3.5239   3.5497   4.8337

     the Fermi energy is    -0.0110 ev

!    total energy              =   -3113.96181750 Ry
     total all-electron energy =    -83998.686382 Ry
     estimated scf accuracy    <       0.00000008 Ry
     smearing contrib. (-TS)   =       0.00043603 Ry
     internal energy E=F+TS    =   -3113.96225353 Ry

     The total energy is F=E-TS. E is the sum of the following terms:
     one-electron contribution =  -24458.96392781 Ry
     hartree contribution      =   12216.63168166 Ry
     xc contribution           =    -193.57581718 Ry
     ewald contribution        =   11083.25975765 Ry
     one-center paw contrib.   =   -1761.31394786 Ry

     convergence has been achieved in  28 iterations

     Writing all to output data dir ./tmp/cleave_012/wse2_cleave_012.save/ :
     XML data file, charge density, pseudopotentials, collected wavefunctions

     init_run     :     28.36s CPU     28.73s WALL (       1 calls)
     electrons    :   1502.86s CPU   1620.05s WALL (       1 calls)

     Called by init_run:
     wfcinit      :     15.52s CPU     15.58s WALL (       1 calls)
     potinit      :     11.82s CPU     11.92s WALL (       1 calls)
     hinit0       :      0.10s CPU      0.11s WALL (       1 calls)

     Called by electrons:
     c_bands      :   1255.46s CPU   1339.52s WALL (      29 calls)
     sum_band     :    172.18s CPU    192.18s WALL (      29 calls)
     v_of_rho     :     39.73s CPU     43.75s WALL (      29 calls)
     newd         :     21.55s CPU     27.61s WALL (      29 calls)
     PAW_pot      :      3.44s CPU      3.59s WALL (      29 calls)
     mix_rho      :     22.21s CPU     25.32s WALL (      29 calls)
     vdW_kernel   :     10.86s CPU     10.87s WALL (       1 calls)

     Called by c_bands:
     init_us_2    :      6.12s CPU      6.45s WALL (    1770 calls)
     cegterg      :   1229.32s CPU   1311.65s WALL (     870 calls)

     Called by *egterg:
     cdiaghg      :     15.38s CPU     16.76s WALL (    3490 calls)
     h_psi        :    560.33s CPU    600.71s WALL (    3550 calls)
     s_psi        :    123.21s CPU    128.29s WALL (    3550 calls)
     g_psi        :      1.33s CPU      1.43s WALL (    2650 calls)

     Called by h_psi:
     h_psi:calbec :    177.77s CPU    187.55s WALL (    3550 calls)
     vloc_psi     :    241.49s CPU    264.95s WALL (    3550 calls)
                                        0.00s GPU  (    3550 calls)
     add_vuspsi   :    139.19s CPU    146.23s WALL (    3550 calls)

     General routines
     calbec       :    257.20s CPU    272.76s WALL (    4420 calls)
     fft          :     20.12s CPU     22.41s WALL (    1826 calls)
     ffts         :      8.00s CPU      9.08s WALL (    3379 calls)
     fftw         :    272.35s CPU    302.43s WALL (  256762 calls)
     interpolate  :      0.41s CPU      0.43s WALL (      29 calls)

     Parallel routines

     PWSCF        :  25m34.88s CPU  27m33.73s WALL


   This run was terminated on:  15:36: 1  18Jun2026            

=------------------------------------------------------------------------------=
   JOB DONE.
=------------------------------------------------------------------------------=
Note: The following floating-point exceptions are signalling: IEEE_UNDERFLOW_FLAG IEEE_DENORMAL
Note: The following floating-point exceptions are signalling: IEEE_UNDERFLOW_FLAG IEEE_DENORMAL
Note: The following floating-point exceptions are signalling: IEEE_UNDERFLOW_FLAG IEEE_DENORMAL
Note: The following floating-point exceptions are signalling: IEEE_UNDERFLOW_FLAG IEEE_DENORMAL
Note: The following floating-point exceptions are signalling: IEEE_UNDERFLOW_FLAG IEEE_DENORMAL
Note: The following floating-point exceptions are signalling: IEEE_UNDERFLOW_FLAG IEEE_DENORMAL
Note: The following floating-point exceptions are signalling: IEEE_UNDERFLOW_FLAG IEEE_DENORMAL
Note: The following floating-point exceptions are signalling: IEEE_UNDERFLOW_FLAG IEEE_DENORMAL
Note: The following floating-point exceptions are signalling: IEEE_UNDERFLOW_FLAG IEEE_DENORMAL
Note: The following floating-point exceptions are signalling: IEEE_UNDERFLOW_FLAG IEEE_DENORMAL
Note: The following floating-point exceptions are signalling: IEEE_UNDERFLOW_FLAG IEEE_DENORMAL
Note: The following floating-point exceptions are signalling: IEEE_UNDERFLOW_FLAG IEEE_DENORMAL
