
     Program PWSCF v.7.5 starts on 18Jun2026 at 22:45:38 

     This program is part of the open-source Quantum ESPRESSO suite
     for quantum simulation of materials; please cite
         "P. Giannozzi et al., J. Phys.:Condens. Matter 21 395502 (2009);
         "P. Giannozzi et al., J. Phys.:Condens. Matter 29 465901 (2017);
         "P. Giannozzi et al., J. Chem. Phys. 152 154105 (2020);
          URL http://www.quantum-espresso.org", 
     in publications or presentations arising from this work. More details at
     http://www.quantum-espresso.org/quote

     Parallel version (MPI), running on    12 processors

     MPI processes distributed on     1 nodes
     22416 MiB available memory on the printing compute node when the environment starts

     Waiting for input...
     Reading input from standard input

     Current dimensions of program PWSCF are:
     Max number of different atomic species (ntypx) = 10
     Max number of k-points (npk) =  40000
     Max angular momentum in pseudopotentials (lmaxx) =  4
     file W.pbe-spn-kjpaw_psl.1.0.0.UPF: wavefunction(s)  6S 5P 5D renormalized
     file Se.pbe-dn-kjpaw_psl.1.0.0.UPF: wavefunction(s)  4S 4P 3D renormalized

     IMPORTANT: XC functional enforced from input :
     Exchange-correlation= VDW-DF2-B86R
                           (   1   4  26   0   2   0   0)
     Any further DFT definition will be discarded
     Please, verify this is what you really want


     R & G space division:  proc/nbgrp/npool/nimage =      12
     Subspace diagonalization in iterative solution of the eigenvalue problem:
     a serial algorithm will be used


     Parallelization info
     --------------------
     sticks:   dense  smooth     PW     G-vecs:    dense   smooth      PW
     Min         139      70     20                71489    25322    3895
     Max         140      71     22                71558    25395    3945
     Sum        1675     847    253               858263   304337   46813

     Using Slab Decomposition



     bravais-lattice index     =            4
     lattice parameter (alat)  =       6.1983  a.u.
     unit-cell volume          =    3143.7277 (a.u.)^3
     number of atoms/cell      =            6
     number of atomic types    =            2
     number of electrons       =        92.00
     number of Kohn-Sham states=           55
     kinetic-energy cutoff     =      80.0000  Ry
     charge density cutoff     =     640.0000  Ry
     scf convergence threshold =      1.0E-07
     mixing beta               =       0.1000
     number of iterations used =           12  local-TF  mixing
     Exchange-correlation= VDW-DF2-B86R
                           (   1   4  26   0   2   0   0)

     celldm(1)=   6.198302  celldm(2)=   0.000000  celldm(3)=  15.243902
     celldm(4)=   0.000000  celldm(5)=   0.000000  celldm(6)=   0.000000

     crystal axes: (cart. coord. in units of alat)
               a(1) = (   1.000000   0.000000   0.000000 )  
               a(2) = (  -0.500000   0.866025   0.000000 )  
               a(3) = (   0.000000   0.000000  15.243902 )  

     reciprocal axes: (cart. coord. in units 2 pi/alat)
               b(1) = (  1.000000  0.577350 -0.000000 )  
               b(2) = (  0.000000  1.154701  0.000000 )  
               b(3) = (  0.000000 -0.000000  0.065600 )  


     PseudoPot. # 1 for W  read from file:
     ./pseudo/W.pbe-spn-kjpaw_psl.1.0.0.UPF
     MD5 check sum: 03c3df5b60893f488392c7401945500a
     Pseudo is Projector augmented-wave + core cor, Zval = 14.0
     Generated using &quot;atomic&quot; code by A. Dal Corso  v.6.2.2
     Shape of augmentation charge: PSQ
     Using radial grid of 1273 points,  6 beta functions with: 
                l(1) =   0
                l(2) =   0
                l(3) =   1
                l(4) =   1
                l(5) =   2
                l(6) =   2
     Q(r) pseudized with 0 coefficients 


     PseudoPot. # 2 for Se read from file:
     ./pseudo/Se.pbe-dn-kjpaw_psl.1.0.0.UPF
     MD5 check sum: ac240dd2bae32a30e0bf3a38df9c8785
     Pseudo is Projector augmented-wave + core cor, Zval = 16.0
     Generated using &quot;atomic&quot; code by A. Dal Corso  v.6.3
     Shape of augmentation charge: PSQ
     Using radial grid of 1211 points,  6 beta functions with: 
                l(1) =   0
                l(2) =   0
                l(3) =   1
                l(4) =   1
                l(5) =   2
                l(6) =   2
     Q(r) pseudized with 0 coefficients 


     atomic species   valence    mass     pseudopotential
     W                14.00   183.84000     W ( 1.00)
     Se               16.00    78.96000     Se( 1.00)

      6 Sym. Ops. (no inversion) found



   Cartesian axes

     site n.     atom                  positions (alat units)
         1        Se     tau(   1) = (  -0.0000005   0.5773506   6.1149390  )
         2        W      tau(   2) = (   0.0000000   0.0000000   6.6383232  )
         3        Se     tau(   3) = (   0.5000005   0.2886748   7.1618445  )
         4        Se     tau(   4) = (  -0.0000005   0.5773506  10.5206555  )
         5        W      tau(   5) = (   0.5000005   0.2886748  11.0439024  )
         6        Se     tau(   6) = (   0.0000000   0.0000000  11.5679878  )

     number of k points=    30  Methfessel-Paxton smearing, width (Ry)=  0.0200
                       cart. coord. in units 2pi/alat
        k(    1) = (   0.0000000   0.0000000   0.0000000), wk =   0.0078125
        k(    2) = (   0.0000000   0.0721688   0.0000000), wk =   0.0468750
        k(    3) = (   0.0000000   0.1443376   0.0000000), wk =   0.0468750
        k(    4) = (   0.0000000   0.2165064   0.0000000), wk =   0.0468750
        k(    5) = (   0.0000000   0.2886751   0.0000000), wk =   0.0468750
        k(    6) = (   0.0000000   0.3608439   0.0000000), wk =   0.0468750
        k(    7) = (   0.0000000   0.4330127   0.0000000), wk =   0.0468750
        k(    8) = (   0.0000000   0.5051815   0.0000000), wk =   0.0468750
        k(    9) = (   0.0000000  -0.5773503   0.0000000), wk =   0.0234375
        k(   10) = (   0.0625000   0.1082532   0.0000000), wk =   0.0468750
        k(   11) = (   0.0625000   0.1804220   0.0000000), wk =   0.0937500
        k(   12) = (   0.0625000   0.2525907   0.0000000), wk =   0.0937500
        k(   13) = (   0.0625000   0.3247595   0.0000000), wk =   0.0937500
        k(   14) = (   0.0625000   0.3969283   0.0000000), wk =   0.0937500
        k(   15) = (   0.0625000   0.4690971   0.0000000), wk =   0.0937500
        k(   16) = (   0.0625000   0.5412659   0.0000000), wk =   0.0937500
        k(   17) = (   0.1250000   0.2165064   0.0000000), wk =   0.0468750
        k(   18) = (   0.1250000   0.2886751   0.0000000), wk =   0.0937500
        k(   19) = (   0.1250000   0.3608439   0.0000000), wk =   0.0937500
        k(   20) = (   0.1250000   0.4330127   0.0000000), wk =   0.0937500
        k(   21) = (   0.1250000   0.5051815   0.0000000), wk =   0.0937500
        k(   22) = (   0.1250000   0.5773503   0.0000000), wk =   0.0468750
        k(   23) = (   0.1875000   0.3247595   0.0000000), wk =   0.0468750
        k(   24) = (   0.1875000   0.3969283   0.0000000), wk =   0.0937500
        k(   25) = (   0.1875000   0.4690971   0.0000000), wk =   0.0937500
        k(   26) = (   0.1875000   0.5412659   0.0000000), wk =   0.0937500
        k(   27) = (   0.2500000   0.4330127   0.0000000), wk =   0.0468750
        k(   28) = (   0.2500000   0.5051815   0.0000000), wk =   0.0937500
        k(   29) = (   0.2500000   0.5773503   0.0000000), wk =   0.0468750
        k(   30) = (   0.3125000   0.5412659   0.0000000), wk =   0.0468750

     Dense  grid:   858263 G-vectors     FFT dimensions: (  50,  50, 768)

     Smooth grid:   304337 G-vectors     FFT dimensions: (  36,  36, 540)

     Estimated max dynamical RAM per process >     350.14 MB

     Estimated total dynamical RAM >       4.10 GB

     Initial potential from superposition of free atoms

     starting charge      91.9986, renormalised to      92.0000

     negative rho (up, down):  1.586E-04 0.000E+00


     %%%%%%%%%%%%%%%%%%%%%%%%%%%%%%%%%%%%%%%%%%%%%%%%%%%%%%%%%%%%%%%%%%%%%%%%
     %                                                                      %
     % You are using vdW-DF, which was implemented by the Thonhauser group. %
     % Please cite the following two papers that made this development      %
     % possible and the two reviews that describe the various versions:     %
     %                                                                      %
     %   T. Thonhauser et al., PRL 115, 136402 (2015).                      %
     %   T. Thonhauser et al., PRB 76, 125112 (2007).                       %
     %   K. Berland et al., Rep. Prog. Phys. 78, 066501 (2015).             %
     %   D.C. Langreth et al., J. Phys.: Condens. Matter 21, 084203 (2009). %
     %                                                                      %
     % If you are calculating stress with vdW-DF, please also cite:         %
     %                                                                      %
     %   R. Sabatini et al., J. Phys.: Condens. Matter 24, 424209 (2012).   %
     %                                                                      %
     %%%%%%%%%%%%%%%%%%%%%%%%%%%%%%%%%%%%%%%%%%%%%%%%%%%%%%%%%%%%%%%%%%%%%%%%

     %%%%%%%%%%%%%%%%%%%%%%%%%%%%%%%%%%%%%%%%%%%%%%%%%%%%%%%%%%%%%%%%%%%%%%%%
     %                                                                      %
     %  vdW-DF NEWS:                                                        %
     %                                                                      %
     %  * vdW-DF3 is now available. DOI: 10.1021/acs.jctc.0c00471           %
     %    use with input_dft = 'vdW-DF3-opt1' or 'vdW-DF3-opt2'             %
     %                                                                      %
     %  * Unscreened and range-separated hybrid vdW-DF-cx functionals       %
     %    DOI: 10.1063/1.4986522 and 10.1088/1361-648X/ac2ad2               %
     %    use with input_dft = 'vdW-DF-cx0'    and 'vdW-DF-ahcx'            %
     %  * Unscreened and range-separated hybrid vdW-DF2-b86r functionals    %
     %    DOI: 10.1063/1.4986522 and DOI: 10.1103/PhysRevX.12.041003        %
     %    use with input_dft = 'vdW-DF2-br0' and 'vdW-DF2-ahbr'             %
     %                                                                      %
     %%%%%%%%%%%%%%%%%%%%%%%%%%%%%%%%%%%%%%%%%%%%%%%%%%%%%%%%%%%%%%%%%%%%%%%%


     Starting wfcs are   62 randomized atomic wfcs
     Checking if some PAW data can be deallocated... 

     total cpu time spent up to now is       28.1 secs

     per-process dynamical memory:   142.9 Mb

     Self-consistent Calculation

     iteration #  1     ecut=    80.00 Ry     beta= 0.10
     Davidson diagonalization with overlap
     ethr =  1.00E-02,  avg # of iterations =  4.0

     Threshold (ethr) on eigenvalues was too large:
     Diagonalizing with lowered threshold

     Davidson diagonalization with overlap
     ethr =  1.09E-04,  avg # of iterations =  4.6

     negative rho (up, down):  6.057E-05 0.000E+00

     total cpu time spent up to now is      133.2 secs

     total energy              =   -3113.99199528 Ry
     estimated scf accuracy    <       0.12922844 Ry

     iteration #  2     ecut=    80.00 Ry     beta= 0.10
     Davidson diagonalization with overlap
     ethr =  1.40E-04,  avg # of iterations =  1.0

     negative rho (up, down):  2.228E-05 0.000E+00

     total cpu time spent up to now is      169.7 secs

     total energy              =   -3113.94748347 Ry
     estimated scf accuracy    <       0.11746109 Ry

     iteration #  3     ecut=    80.00 Ry     beta= 0.10
     Davidson diagonalization with overlap
     ethr =  1.28E-04,  avg # of iterations =  4.9

     negative rho (up, down):  5.708E-06 0.000E+00

     total cpu time spent up to now is      219.6 secs

     total energy              =   -3113.96229862 Ry
     estimated scf accuracy    <       0.02352924 Ry

     iteration #  4     ecut=    80.00 Ry     beta= 0.10
     Davidson diagonalization with overlap
     ethr =  2.56E-05,  avg # of iterations =  5.5

     negative rho (up, down):  5.681E-08 0.000E+00

     total cpu time spent up to now is      264.4 secs

     total energy              =   -3113.95776471 Ry
     estimated scf accuracy    <       0.02160726 Ry

     iteration #  5     ecut=    80.00 Ry     beta= 0.10
     Davidson diagonalization with overlap
     ethr =  2.35E-05,  avg # of iterations =  2.8

     negative rho (up, down):  4.025E-08 0.000E+00

     total cpu time spent up to now is      312.5 secs

     total energy              =   -3113.95949200 Ry
     estimated scf accuracy    <       0.00320687 Ry

     iteration #  6     ecut=    80.00 Ry     beta= 0.10
     Davidson diagonalization with overlap
     ethr =  3.49E-06,  avg # of iterations =  6.4

     negative rho (up, down):  1.783E-07 0.000E+00

     total cpu time spent up to now is      360.5 secs

     total energy              =   -3113.95844840 Ry
     estimated scf accuracy    <       0.00293535 Ry

     iteration #  7     ecut=    80.00 Ry     beta= 0.10
     Davidson diagonalization with overlap
     ethr =  3.19E-06,  avg # of iterations =  3.6

     negative rho (up, down):  1.900E-07 0.000E+00

     total cpu time spent up to now is      414.7 secs

     total energy              =   -3113.95815411 Ry
     estimated scf accuracy    <       0.00353583 Ry

     iteration #  8     ecut=    80.00 Ry     beta= 0.10
     Davidson diagonalization with overlap
     c_bands:  1 eigenvalues not converged
     ethr =  3.19E-06,  avg # of iterations =  5.0

     negative rho (up, down):  3.406E-08 0.000E+00

     total cpu time spent up to now is      464.2 secs

     total energy              =   -3113.95820997 Ry
     estimated scf accuracy    <       0.00086969 Ry

     iteration #  9     ecut=    80.00 Ry     beta= 0.10
     Davidson diagonalization with overlap
     c_bands:  1 eigenvalues not converged
     ethr =  9.45E-07,  avg # of iterations =  6.7

     negative rho (up, down):  1.908E-07 0.000E+00

     total cpu time spent up to now is      512.9 secs

     total energy              =   -3113.95819182 Ry
     estimated scf accuracy    <       0.00057551 Ry

     iteration # 10     ecut=    80.00 Ry     beta= 0.10
     Davidson diagonalization with overlap
     ethr =  6.26E-07,  avg # of iterations =  2.0

     negative rho (up, down):  1.070E-06 0.000E+00

     total cpu time spent up to now is      535.3 secs

     total energy              =   -3113.95818776 Ry
     estimated scf accuracy    <       0.00038298 Ry

     iteration # 11     ecut=    80.00 Ry     beta= 0.10
     Davidson diagonalization with overlap
     ethr =  4.16E-07,  avg # of iterations =  3.1

     negative rho (up, down):  1.351E-08 0.000E+00

     total cpu time spent up to now is      559.1 secs

     total energy              =   -3113.95820802 Ry
     estimated scf accuracy    <       0.00027266 Ry

     iteration # 12     ecut=    80.00 Ry     beta= 0.10
     Davidson diagonalization with overlap
     ethr =  2.96E-07,  avg # of iterations =  1.0

     negative rho (up, down):  1.251E-03 0.000E+00

     total cpu time spent up to now is      578.5 secs

     total energy              =   -3113.95826121 Ry
     estimated scf accuracy    <       0.00027595 Ry

     iteration # 13     ecut=    80.00 Ry     beta= 0.10
     Davidson diagonalization with overlap
     ethr =  2.96E-07,  avg # of iterations =  6.7

     negative rho (up, down):  1.964E-03 0.000E+00

     total cpu time spent up to now is      601.3 secs

     total energy              =   -3113.95826351 Ry
     estimated scf accuracy    <       0.00024687 Ry

     iteration # 14     ecut=    80.00 Ry     beta= 0.10
     Davidson diagonalization with overlap
     ethr =  2.68E-07,  avg # of iterations =  1.5

     negative rho (up, down):  4.355E-04 0.000E+00

     total cpu time spent up to now is      621.2 secs

     total energy              =   -3113.95822536 Ry
     estimated scf accuracy    <       0.00021509 Ry

     iteration # 15     ecut=    80.00 Ry     beta= 0.10
     Davidson diagonalization with overlap
     ethr =  2.34E-07,  avg # of iterations =  6.6

     negative rho (up, down):  6.391E-04 0.000E+00

     total cpu time spent up to now is      645.0 secs

     total energy              =   -3113.95822859 Ry
     estimated scf accuracy    <       0.00039384 Ry

     iteration # 16     ecut=    80.00 Ry     beta= 0.10
     Davidson diagonalization with overlap
     ethr =  2.34E-07,  avg # of iterations =  4.9

     negative rho (up, down):  2.770E-03 0.000E+00

     total cpu time spent up to now is      665.8 secs

     total energy              =   -3113.95811864 Ry
     estimated scf accuracy    <       0.00035369 Ry

     iteration # 17     ecut=    80.00 Ry     beta= 0.10
     Davidson diagonalization with overlap
     ethr =  2.34E-07,  avg # of iterations =  5.9

     negative rho (up, down):  3.383E-03 0.000E+00

     total cpu time spent up to now is      690.2 secs

     total energy              =   -3113.95813298 Ry
     estimated scf accuracy    <       0.00013299 Ry

     iteration # 18     ecut=    80.00 Ry     beta= 0.10
     Davidson diagonalization with overlap
     ethr =  1.45E-07,  avg # of iterations =  6.2

     negative rho (up, down):  1.950E-03 0.000E+00

     total cpu time spent up to now is      714.3 secs

     total energy              =   -3113.95814043 Ry
     estimated scf accuracy    <       0.00020201 Ry

     iteration # 19     ecut=    80.00 Ry     beta= 0.10
     Davidson diagonalization with overlap
     ethr =  1.45E-07,  avg # of iterations =  4.1

     negative rho (up, down):  1.949E-03 0.000E+00

     total cpu time spent up to now is      739.0 secs

     total energy              =   -3113.95815244 Ry
     estimated scf accuracy    <       0.00012741 Ry

     iteration # 20     ecut=    80.00 Ry     beta= 0.10
     Davidson diagonalization with overlap
     ethr =  1.38E-07,  avg # of iterations =  3.3

     negative rho (up, down):  1.337E-03 0.000E+00

     total cpu time spent up to now is      759.8 secs

     total energy              =   -3113.95816040 Ry
     estimated scf accuracy    <       0.00009909 Ry

     iteration # 21     ecut=    80.00 Ry     beta= 0.10
     Davidson diagonalization with overlap
     ethr =  1.08E-07,  avg # of iterations =  6.4

     negative rho (up, down):  1.101E-03 0.000E+00

     total cpu time spent up to now is      784.0 secs

     total energy              =   -3113.95817405 Ry
     estimated scf accuracy    <       0.00001725 Ry

     iteration # 22     ecut=    80.00 Ry     beta= 0.10
     Davidson diagonalization with overlap
     ethr =  1.87E-08,  avg # of iterations =  2.1

     negative rho (up, down):  9.182E-04 0.000E+00

     total cpu time spent up to now is      807.4 secs

     total energy              =   -3113.95817710 Ry
     estimated scf accuracy    <       0.00000504 Ry

     iteration # 23     ecut=    80.00 Ry     beta= 0.10
     Davidson diagonalization with overlap
     ethr =  5.48E-09,  avg # of iterations =  2.0

     negative rho (up, down):  2.356E-04 0.000E+00

     total cpu time spent up to now is      832.6 secs

     total energy              =   -3113.95818493 Ry
     estimated scf accuracy    <       0.00000439 Ry

     iteration # 24     ecut=    80.00 Ry     beta= 0.10
     Davidson diagonalization with overlap
     ethr =  4.78E-09,  avg # of iterations =  5.3

     negative rho (up, down):  1.761E-04 0.000E+00

     total cpu time spent up to now is      860.9 secs

     total energy              =   -3113.95818602 Ry
     estimated scf accuracy    <       0.00000084 Ry

     iteration # 25     ecut=    80.00 Ry     beta= 0.10
     Davidson diagonalization with overlap
     ethr =  9.17E-10,  avg # of iterations =  4.2

     negative rho (up, down):  1.431E-04 0.000E+00

     total cpu time spent up to now is      885.5 secs

     total energy              =   -3113.95818667 Ry
     estimated scf accuracy    <       0.00000039 Ry

     iteration # 26     ecut=    80.00 Ry     beta= 0.10
     Davidson diagonalization with overlap
     ethr =  4.23E-10,  avg # of iterations =  2.5

     negative rho (up, down):  1.432E-04 0.000E+00

     total cpu time spent up to now is      906.9 secs

     total energy              =   -3113.95818651 Ry
     estimated scf accuracy    <       0.00000020 Ry

     iteration # 27     ecut=    80.00 Ry     beta= 0.10
     Davidson diagonalization with overlap
     ethr =  2.15E-10,  avg # of iterations =  2.7

     negative rho (up, down):  1.514E-04 0.000E+00

     total cpu time spent up to now is      931.0 secs

     End of self-consistent calculation

          k = 0.0000 0.0000 0.0000 ( 38015 PWs)   bands (ev):

   -74.8808 -74.8805 -48.1460 -48.1460 -48.1456 -48.1456 -48.1449 -48.1449
   -48.1443 -48.1443 -48.1151 -48.1151 -48.1150 -48.1150 -48.1140 -48.1140
   -48.1137 -48.1137 -48.1010 -48.1007 -48.1000 -48.0995 -39.0738 -39.0734
   -39.0388 -39.0388 -39.0381 -39.0381 -15.5109 -15.5079 -14.4402 -14.4390
    -6.9727  -6.9710  -3.3518  -3.3518  -3.3472  -3.3472  -3.3287  -3.3286
    -1.3211  -1.3200  -0.6878  -0.6878  -0.6857  -0.6857   0.2078   0.2078
     0.2099   0.2099   3.2451   3.4101   3.4101   3.4119   3.4119

          k = 0.0000 0.0722 0.0000 ( 37975 PWs)   bands (ev):

   -74.8804 -74.8801 -48.1460 -48.1458 -48.1456 -48.1454 -48.1449 -48.1447
   -48.1443 -48.1441 -48.1152 -48.1151 -48.1150 -48.1149 -48.1141 -48.1141
   -48.1137 -48.1137 -48.1009 -48.1006 -48.0999 -48.0994 -39.0720 -39.0716
   -39.0479 -39.0472 -39.0409 -39.0402 -15.4498 -15.4468 -14.4122 -14.4109
    -6.8903  -6.8885  -3.8390  -3.8360  -3.3171  -3.3125  -2.9198  -2.9183
    -1.3950  -1.3946  -0.9743  -0.9724  -0.9169  -0.9146   0.1961   0.1976
     0.4093   0.4111   3.0596   3.0693   3.3685   3.3702   3.3807

          k = 0.0000 0.1443 0.0000 ( 37895 PWs)   bands (ev):

   -74.8793 -74.8790 -48.1459 -48.1456 -48.1453 -48.1449 -48.1448 -48.1443
   -48.1442 -48.1436 -48.1154 -48.1153 -48.1151 -48.1149 -48.1144 -48.1142
   -48.1139 -48.1137 -48.1007 -48.1003 -48.0996 -48.0992 -39.0737 -39.0730
   -39.0668 -39.0664 -39.0469 -39.0463 -15.2707 -15.2678 -14.3302 -14.3289
    -6.6505  -6.6488  -4.3442  -4.3409  -3.2341  -3.2295  -2.6971  -2.6961
    -2.0361  -2.0341  -1.3006  -1.2980  -1.1882  -1.1880   0.1983   0.1989
     0.7134   0.7147   2.4938   2.4984   3.2922   3.2938   3.6729

          k = 0.0000 0.2165 0.0000 ( 37851 PWs)   bands (ev):

   -74.8775 -74.8773 -48.1458 -48.1457 -48.1448 -48.1445 -48.1444 -48.1441
   -48.1434 -48.1428 -48.1158 -48.1155 -48.1153 -48.1149 -48.1147 -48.1144
   -48.1141 -48.1137 -48.1003 -48.1000 -48.0992 -48.0988 -39.1120 -39.1113
   -39.0591 -39.0587 -39.0560 -39.0553 -14.9874 -14.9846 -14.2008 -14.1993
    -6.2829  -6.2812  -4.7968  -4.7934  -3.2952  -3.2929  -3.1711  -3.1667
    -2.4434  -2.4429  -1.5933  -1.5904  -1.3273  -1.3270   0.2372   0.2376
     0.9163   0.9171   2.1847   2.1880   3.2658   3.2673   4.0596

          k = 0.0000 0.2887 0.0000 ( 37919 PWs)   bands (ev):

   -74.8755 -74.8753 -48.1459 -48.1457 -48.1448 -48.1444 -48.1436 -48.1433
   -48.1425 -48.1420 -48.1163 -48.1157 -48.1155 -48.1152 -48.1149 -48.1145
   -48.1143 -48.1137 -48.0999 -48.0995 -48.0988 -48.0984 -39.1569 -39.1562
   -39.0666 -39.0659 -39.0500 -39.0496 -14.6265 -14.6238 -14.0327 -14.0310
    -5.8921  -5.8901  -5.1134  -5.1102  -4.3532  -4.3505  -3.2167  -3.2125
    -2.6151  -2.6150  -1.6911  -1.6881  -1.6320  -1.6315   0.3953   0.3960
     1.0212   1.0219   2.3253   2.3283   3.3110   3.3126   4.5361

          k = 0.0000 0.3608 0.0000 ( 37933 PWs)   bands (ev):

   -74.8735 -74.8733 -48.1461 -48.1456 -48.1449 -48.1443 -48.1427 -48.1424
   -48.1416 -48.1411 -48.1168 -48.1158 -48.1157 -48.1156 -48.1150 -48.1147
   -48.1145 -48.1138 -48.0994 -48.0991 -48.0984 -48.0979 -39.2014 -39.2007
   -39.0772 -39.0765 -39.0408 -39.0404 -14.2420 -14.2393 -13.8277 -13.8257
    -5.9036  -5.9009  -5.3298  -5.3273  -4.9122  -4.9099  -3.3658  -3.3618
    -2.9620  -2.9620  -1.9365  -1.9359  -1.6307  -1.6277   0.7350   0.7356
     1.1145   1.1154   2.7697   2.7726   3.3848   3.3866   5.0037

          k = 0.0000 0.4330 0.0000 ( 37998 PWs)   bands (ev):

   -74.8718 -74.8716 -48.1462 -48.1455 -48.1451 -48.1442 -48.1420 -48.1417
   -48.1409 -48.1404 -48.1172 -48.1160 -48.1160 -48.1159 -48.1150 -48.1148
   -48.1147 -48.1138 -48.0991 -48.0987 -48.0980 -48.0976 -39.2389 -39.2382
   -39.0862 -39.0854 -39.0331 -39.0327 -13.9374 -13.9348 -13.5647 -13.5627
    -6.5181  -6.5152  -5.5991  -5.5967  -4.6898  -4.6880  -3.5304  -3.5265
    -3.2552  -3.2548  -2.1237  -2.1233  -1.5353  -1.5326   1.2005   1.2008
     1.2535   1.2548   3.2739   3.2764   3.4466   3.4486   4.5968

          k = 0.0000 0.5052 0.0000 ( 38048 PWs)   bands (ev):

   -74.8707 -74.8704 -48.1463 -48.1454 -48.1451 -48.1442 -48.1415 -48.1412
   -48.1404 -48.1399 -48.1174 -48.1163 -48.1161 -48.1160 -48.1150 -48.1149
   -48.1149 -48.1139 -48.0988 -48.0985 -48.0978 -48.0973 -39.2638 -39.2631
   -39.0921 -39.0914 -39.0279 -39.0275 -13.7759 -13.7731 -13.2964 -13.2944
    -7.0821  -7.0791  -5.6167  -5.6148  -4.7655  -4.7638  -3.6471  -3.6433
    -3.1882  -3.1873  -2.2418  -2.2415  -1.4740  -1.4715   1.4030   1.4046
     1.6717   1.6719   3.4627   3.4641   3.4829   3.4851   4.5585

          k = 0.0000-0.5774 0.0000 ( 38024 PWs)   bands (ev):

   -74.8703 -74.8700 -48.1464 -48.1454 -48.1452 -48.1441 -48.1413 -48.1411
   -48.1402 -48.1398 -48.1175 -48.1164 -48.1161 -48.1161 -48.1150 -48.1150
   -48.1149 -48.1139 -48.0987 -48.0984 -48.0977 -48.0972 -39.2726 -39.2718
   -39.0942 -39.0935 -39.0260 -39.0257 -13.7261 -13.7233 -13.1820 -13.1800
    -7.2949  -7.2918  -5.5814  -5.5799  -4.8876  -4.8859  -3.6885  -3.6846
    -3.0725  -3.0714  -2.2948  -2.2946  -1.4550  -1.4526   1.4696   1.4714
     1.8945   1.8948   3.4830   3.4831   3.4945   3.4967   4.2183

          k = 0.0625 0.1083 0.0000 ( 37895 PWs)   bands (ev):

   -74.8796 -74.8794 -48.1459 -48.1456 -48.1455 -48.1451 -48.1448 -48.1444
   -48.1443 -48.1438 -48.1154 -48.1153 -48.1150 -48.1149 -48.1143 -48.1142
   -48.1138 -48.1137 -48.1008 -48.1004 -48.0997 -48.0993 -39.0686 -39.0681
   -39.0650 -39.0643 -39.0452 -39.0445 -15.3297 -15.3267 -14.3572 -14.3559
    -6.7288  -6.7270  -4.2095  -4.2063  -3.2660  -3.2614  -2.7189  -2.7179
    -1.7764  -1.7748  -1.3094  -1.3068  -1.0984  -1.0980   0.2667   0.2676
     0.5618   0.5631   2.7116   2.7175   3.2282   3.2307   3.5916

          k = 0.0625 0.1804 0.0000 ( 37885 PWs)   bands (ev):

   -74.8782 -74.8780 -48.1458 -48.1457 -48.1448 -48.1447 -48.1445 -48.1443
   -48.1437 -48.1432 -48.1157 -48.1154 -48.1151 -48.1149 -48.1146 -48.1143
   -48.1140 -48.1137 -48.1004 -48.1001 -48.0994 -48.0989 -39.0964 -39.0957
   -39.0622 -39.0618 -39.0534 -39.0527 -15.0980 -15.0952 -14.2517 -14.2502
    -6.4209  -6.4192  -4.6416  -4.6382  -3.2575  -3.2531  -2.8003  -2.7987
    -2.4646  -2.4630  -1.6522  -1.6498  -1.1323  -1.1321   0.3282   0.3285
     0.6688   0.6696   2.4287   2.4328   3.0819   3.0834   3.9170

          k = 0.0625 0.2526 0.0000 ( 37916 PWs)   bands (ev):

   -74.8763 -74.8761 -48.1458 -48.1457 -48.1447 -48.1443 -48.1440 -48.1437
   -48.1429 -48.1424 -48.1161 -48.1155 -48.1154 -48.1150 -48.1150 -48.1144
   -48.1142 -48.1138 -48.1001 -48.0997 -48.0990 -48.0986 -39.1370 -39.1363
   -39.0644 -39.0637 -39.0535 -39.0531 -14.7741 -14.7713 -14.1038 -14.1022
    -6.0152  -6.0135  -5.0151  -5.0117  -3.8982  -3.8954  -3.1960  -3.1924
    -2.5949  -2.5939  -1.9128  -1.9108  -1.2029  -1.2021   0.2850   0.2853
     0.8771   0.8776   2.3620   2.3649   3.0923   3.0941   4.3442

          k = 0.0625 0.3248 0.0000 ( 37964 PWs)   bands (ev):

   -74.8743 -74.8741 -48.1459 -48.1455 -48.1448 -48.1443 -48.1432 -48.1428
   -48.1421 -48.1416 -48.1166 -48.1157 -48.1156 -48.1155 -48.1150 -48.1146
   -48.1144 -48.1138 -48.0996 -48.0993 -48.0985 -48.0981 -39.1807 -39.1799
   -39.0760 -39.0753 -39.0444 -39.0441 -14.3945 -14.3919 -13.9216 -13.9197
    -5.7440  -5.7416  -5.1849  -5.1822  -4.8214  -4.8186  -3.4290  -3.4257
    -2.7088  -2.7080  -2.2422  -2.2403  -1.2608  -1.2594   0.3986   0.3990
     1.1326   1.1331   2.5247   2.5268   3.2317   3.2341   4.8611

          k = 0.0625 0.3969 0.0000 ( 37981 PWs)   bands (ev):

   -74.8725 -74.8722 -48.1460 -48.1454 -48.1449 -48.1441 -48.1424 -48.1421
   -48.1412 -48.1408 -48.1170 -48.1159 -48.1159 -48.1158 -48.1151 -48.1148
   -48.1146 -48.1139 -48.0992 -48.0989 -48.0981 -48.0977 -39.2207 -39.2200
   -39.0867 -39.0860 -39.0360 -39.0356 -14.0370 -14.0344 -13.6953 -13.6933
    -6.1311  -6.1283  -5.5079  -5.5054  -4.7647  -4.7627  -3.6779  -3.6749
    -2.9758  -2.9748  -2.4707  -2.4690  -1.2554  -1.2538   0.6913   0.6914
     1.4020   1.4026   2.8082   2.8098   3.4557   3.4584   4.9791

          k = 0.0625 0.4691 0.0000 ( 38057 PWs)   bands (ev):

   -74.8711 -74.8708 -48.1462 -48.1453 -48.1450 -48.1441 -48.1418 -48.1415
   -48.1407 -48.1402 -48.1173 -48.1162 -48.1161 -48.1159 -48.1151 -48.1150
   -48.1147 -48.1139 -48.0989 -48.0986 -48.0978 -48.0974 -39.2512 -39.2504
   -39.0949 -39.0942 -39.0296 -39.0292 -13.8093 -13.8066 -13.4154 -13.4134
    -6.7836  -6.7807  -5.6117  -5.6095  -4.6504  -4.6488  -3.7920  -3.7889
    -3.1438  -3.1424  -2.5674  -2.5660  -1.2606  -1.2591   1.0668   1.0675
     1.6740   1.6747   3.0293   3.0309   3.6261   3.6283   4.6882

          k = 0.0625 0.5413 0.0000 ( 38034 PWs)   bands (ev):

   -74.8703 -74.8700 -48.1462 -48.1452 -48.1450 -48.1440 -48.1414 -48.1412
   -48.1403 -48.1399 -48.1175 -48.1163 -48.1163 -48.1159 -48.1151 -48.1151
   -48.1148 -48.1139 -48.0987 -48.0984 -48.0977 -48.0972 -39.2676 -39.2668
   -39.0993 -39.0986 -39.0260 -39.0257 -13.7097 -13.7069 -13.2089 -13.2069
    -7.1828  -7.1798  -5.5861  -5.5844  -4.8085  -4.8067  -3.8017  -3.7982
    -3.0667  -3.0654  -2.6178  -2.6166  -1.2876  -1.2862   1.3717   1.3731
     1.8465   1.8466   3.1828   3.1845   3.5405   3.5412   4.5477

          k = 0.1250 0.2165 0.0000 ( 37933 PWs)   bands (ev):

   -74.8766 -74.8764 -48.1457 -48.1456 -48.1447 -48.1443 -48.1442 -48.1439
   -48.1431 -48.1426 -48.1161 -48.1155 -48.1152 -48.1151 -48.1150 -48.1144
   -48.1140 -48.1139 -48.1001 -48.0998 -48.0990 -48.0986 -39.1287 -39.1280
   -39.0651 -39.0644 -39.0546 -39.0542 -14.8246 -14.8218 -14.1282 -14.1266
    -6.0598  -6.0581  -4.9670  -4.9635  -3.7324  -3.7291  -2.9733  -2.9720
    -2.8949  -2.8914  -1.9086  -1.9070  -1.0316  -1.0313   0.2833   0.2835
     0.7104   0.7107   2.6926   2.6964   2.6968   2.6994   4.2815

          k = 0.1250 0.2887 0.0000 ( 37936 PWs)   bands (ev):

   -74.8748 -74.8745 -48.1457 -48.1454 -48.1446 -48.1441 -48.1435 -48.1432
   -48.1424 -48.1419 -48.1165 -48.1156 -48.1154 -48.1154 -48.1152 -48.1145
   -48.1143 -48.1140 -48.0997 -48.0994 -48.0986 -48.0982 -39.1660 -39.1653
   -39.0789 -39.0782 -39.0464 -39.0460 -14.4755 -14.4728 -13.9700 -13.9682
    -5.6448  -5.6429  -5.2247  -5.2214  -4.5404  -4.5374  -3.4350  -3.4328
    -2.9713  -2.9685  -2.1934  -2.1923  -0.9198  -0.9191   0.1024   0.1025
     1.0928   1.0931   2.4021   2.4030   3.0576   3.0621   4.7525

          k = 0.1250 0.3608 0.0000 ( 38000 PWs)   bands (ev):

   -74.8729 -74.8727 -48.1458 -48.1452 -48.1446 -48.1439 -48.1428 -48.1425
   -48.1417 -48.1412 -48.1169 -48.1158 -48.1157 -48.1157 -48.1153 -48.1147
   -48.1145 -48.1141 -48.0993 -48.0990 -48.0982 -48.0978 -39.2028 -39.2020
   -39.0930 -39.0923 -39.0380 -39.0376 -14.1005 -14.0980 -13.7824 -13.7803
    -5.7166  -5.7138  -5.3660  -5.3632  -4.8972  -4.8949  -3.8229  -3.8205
    -3.0750  -3.0726  -2.6291  -2.6281  -0.8422  -0.8413   0.2130   0.2131
     1.4785   1.4790   2.3220   2.3229   3.4273   3.4312   5.3001

          k = 0.1250 0.4330 0.0000 ( 38048 PWs)   bands (ev):

   -74.8713 -74.8711 -48.1458 -48.1450 -48.1446 -48.1438 -48.1422 -48.1419
   -48.1411 -48.1406 -48.1172 -48.1161 -48.1160 -48.1157 -48.1153 -48.1150
   -48.1146 -48.1141 -48.0990 -48.0987 -48.0979 -48.0975 -39.2336 -39.2329
   -39.1051 -39.1044 -39.0308 -39.0305 -13.8077 -13.8051 -13.5382 -13.5360
    -6.3494  -6.3465  -5.5582  -5.5556  -4.5535  -4.5517  -4.0731  -4.0705
    -3.2047  -3.2025  -2.9993  -2.9981  -0.8630  -0.8623   0.5656   0.5658
     1.7638   1.7647   2.4258   2.4268   3.7257   3.7284   5.1607

          k = 0.1250 0.5052 0.0000 ( 38027 PWs)   bands (ev):

   -74.8703 -74.8700 -48.1458 -48.1449 -48.1446 -48.1436 -48.1417 -48.1416
   -48.1406 -48.1402 -48.1173 -48.1163 -48.1162 -48.1157 -48.1153 -48.1152
   -48.1146 -48.1141 -48.0987 -48.0984 -48.0977 -48.0973 -39.2541 -39.2533
   -39.1132 -39.1124 -39.0261 -39.0257 -13.6617 -13.6590 -13.2818 -13.2797
    -6.8700  -6.8670  -5.5815  -5.5793  -4.6152  -4.6134  -4.0391  -4.0363
    -3.2938  -3.2919  -3.1032  -3.1018  -0.9512  -0.9506   1.0198   1.0205
     1.8450   1.8459   2.6223   2.6235   3.7193   3.7209   5.0413

          k = 0.1250 0.5774 0.0000 ( 37968 PWs)   bands (ev):

   -74.8699 -74.8697 -48.1458 -48.1448 -48.1446 -48.1436 -48.1415 -48.1414
   -48.1405 -48.1401 -48.1174 -48.1164 -48.1162 -48.1157 -48.1153 -48.1153
   -48.1146 -48.1142 -48.0986 -48.0983 -48.0976 -48.0972 -39.2613 -39.2605
   -39.1160 -39.1153 -39.0244 -39.0240 -13.6169 -13.6142 -13.1744 -13.1723
    -7.0631  -7.0601  -5.5653  -5.5634  -4.7209  -4.7190  -4.0176  -4.0147
    -3.3136  -3.3118  -3.0717  -3.0703  -1.0029  -1.0024   1.3131   1.3142
     1.7540   1.7546   2.7585   2.7599   3.5889   3.5898   4.9899

          k = 0.1875 0.3248 0.0000 ( 37987 PWs)   bands (ev):

   -74.8731 -74.8728 -48.1456 -48.1451 -48.1445 -48.1438 -48.1430 -48.1427
   -48.1419 -48.1414 -48.1169 -48.1157 -48.1156 -48.1155 -48.1155 -48.1146
   -48.1144 -48.1142 -48.0993 -48.0990 -48.0983 -48.0979 -39.1946 -39.1939
   -39.0970 -39.0963 -39.0387 -39.0383 -14.1225 -14.1200 -13.8127 -13.8106
    -5.4129  -5.4099  -5.3916  -5.3891  -4.9743  -4.9717  -3.8244  -3.8227
    -3.3816  -3.3785  -2.5077  -2.5069  -0.5890  -0.5883  -0.0559  -0.0557
     1.4852   1.4855   2.1281   2.1287   3.4197   3.4240   5.2636

          k = 0.1875 0.3969 0.0000 ( 38014 PWs)   bands (ev):

   -74.8715 -74.8712 -48.1455 -48.1447 -48.1443 -48.1435 -48.1425 -48.1423
   -48.1414 -48.1410 -48.1171 -48.1159 -48.1159 -48.1156 -48.1156 -48.1148
   -48.1145 -48.1143 -48.0990 -48.0987 -48.0979 -48.0975 -39.2193 -39.2186
   -39.1154 -39.1147 -39.0315 -39.0312 -13.7797 -13.7773 -13.6328 -13.6305
    -5.9318  -5.9291  -5.5114  -5.5084  -4.6004  -4.5984  -4.1776  -4.1756
    -3.7258  -3.7231  -2.9112  -2.9104  -0.4244  -0.4239   0.0885   0.0885
     1.7994   1.8001   2.0436   2.0440   3.7716   3.7747   5.6678

          k = 0.1875 0.4691 0.0000 ( 38010 PWs)   bands (ev):

   -74.8703 -74.8700 -48.1453 -48.1445 -48.1441 -48.1432 -48.1422 -48.1420
   -48.1411 -48.1407 -48.1172 -48.1163 -48.1161 -48.1157 -48.1156 -48.1151
   -48.1146 -48.1144 -48.0987 -48.0985 -48.0977 -48.0973 -39.2372 -39.2365
   -39.1304 -39.1296 -39.0261 -39.0257 -13.5861 -13.5836 -13.3815 -13.3793
    -6.4466  -6.4438  -5.5621  -5.5594  -4.4301  -4.4281  -4.2317  -4.2297
    -3.9774  -3.9751  -3.2090  -3.2079  -0.5196  -0.5195   0.5289   0.5292
     1.8572   1.8581   2.2107   2.2112   3.9081   3.9103   5.3116

          k = 0.1875 0.5413 0.0000 ( 38010 PWs)   bands (ev):

   -74.8696 -74.8694 -48.1452 -48.1443 -48.1441 -48.1431 -48.1419 -48.1419
   -48.1409 -48.1405 -48.1172 -48.1165 -48.1161 -48.1157 -48.1156 -48.1154
   -48.1146 -48.1144 -48.0986 -48.0983 -48.0975 -48.0972 -39.2466 -39.2459
   -39.1387 -39.1380 -39.0232 -39.0228 -13.5076 -13.5050 -13.1979 -13.1957
    -6.7462  -6.7433  -5.5697  -5.5673  -4.5616  -4.5593  -4.1681  -4.1659
    -4.0555  -4.0538  -3.2620  -3.2607  -0.6283  -0.6282   0.9985   0.9988
     1.6260   1.6271   2.4875   2.4883   3.7049   3.7064   5.2906

          k = 0.2500 0.4330 0.0000 ( 38031 PWs)   bands (ev):

   -74.8703 -74.8700 -48.1451 -48.1442 -48.1439 -48.1430 -48.1425 -48.1422
   -48.1413 -48.1409 -48.1172 -48.1161 -48.1160 -48.1159 -48.1156 -48.1150
   -48.1147 -48.1144 -48.0987 -48.0985 -48.0977 -48.0973 -39.2284 -39.2276
   -39.1394 -39.1386 -39.0261 -39.0257 -13.4998 -13.4977 -13.4776 -13.4748
    -6.1927  -6.1899  -5.5591  -5.5561  -4.4119  -4.4098  -4.3774  -4.3754
    -4.1686  -4.1663  -3.2801  -3.2792  -0.0340  -0.0334   0.0141   0.0148
     1.8456   1.8461   2.0851   2.0853   3.9900   3.9924   5.4311

          k = 0.2500 0.5052 0.0000 ( 38019 PWs)   bands (ev):

   -74.8695 -74.8692 -48.1447 -48.1438 -48.1436 -48.1426 -48.1424 -48.1422
   -48.1413 -48.1409 -48.1171 -48.1164 -48.1160 -48.1160 -48.1156 -48.1153
   -48.1149 -48.1144 -48.0985 -48.0984 -48.0975 -48.0972 -39.2306 -39.2299
   -39.1591 -39.1584 -39.0225 -39.0221 -13.4007 -13.3982 -13.2631 -13.2607
    -6.3640  -6.3612  -5.5889  -5.5860  -4.8056  -4.8028  -4.3737  -4.3721
    -4.0439  -4.0423  -3.5431  -3.5420  -0.1462  -0.1460   0.4492   0.4494
     1.5655   1.5666   2.4217   2.4221   3.8692   3.8711   5.1206

          k = 0.2500 0.5774 0.0000 ( 38023 PWs)   bands (ev):

   -74.8692 -74.8690 -48.1446 -48.1436 -48.1434 -48.1424 -48.1424 -48.1423
   -48.1413 -48.1409 -48.1170 -48.1166 -48.1161 -48.1159 -48.1156 -48.1155
   -48.1149 -48.1144 -48.0985 -48.0983 -48.0974 -48.0971 -39.2302 -39.2294
   -39.1673 -39.1666 -39.0212 -39.0208 -13.3654 -13.3629 -13.1832 -13.1808
    -6.4220  -6.4192  -5.5961  -5.5933  -4.9737  -4.9708  -4.2088  -4.2073
    -4.2056  -4.2042  -3.5605  -3.5592  -0.2072  -0.2071   0.8067   0.8070
     1.2289   1.2306   2.7066   2.7073   3.6221   3.6236   5.0445

          k = 0.3125 0.5413 0.0000 ( 38095 PWs)   bands (ev):

   -74.8690 -74.8688 -48.1443 -48.1432 -48.1431 -48.1428 -48.1426 -48.1420
   -48.1417 -48.1413 -48.1169 -48.1165 -48.1164 -48.1157 -48.1155 -48.1154
   -48.1152 -48.1144 -48.0984 -48.0983 -48.0974 -48.0971 -39.2153 -39.2146
   -39.1865 -39.1857 -39.0205 -39.0202 -13.2781 -13.2757 -13.2161 -13.2136
    -6.1116  -6.1089  -5.6257  -5.6228  -5.4118  -5.4090  -4.2187  -4.2173
    -3.9233  -3.9217  -3.8921  -3.8910   0.2330   0.2337   0.4130   0.4131
     1.0807   1.0825   2.9114   2.9121   3.5430   3.5444   4.8472

     the Fermi energy is    -0.0048 ev

!    total energy              =   -3113.95818627 Ry
     total all-electron energy =    -83998.682750 Ry
     estimated scf accuracy    <       0.00000003 Ry
     smearing contrib. (-TS)   =       0.00046697 Ry
     internal energy E=F+TS    =   -3113.95865324 Ry

     The total energy is F=E-TS. E is the sum of the following terms:
     one-electron contribution =  -15427.24379151 Ry
     hartree contribution      =    7700.78818506 Ry
     xc contribution           =    -193.57597384 Ry
     ewald contribution        =    6567.38703474 Ry
     one-center paw contrib.   =   -1761.31410769 Ry

     convergence has been achieved in  27 iterations

     Writing all to output data dir ./tmp/cleave_040/wse2_cleave_040.save/ :
     XML data file, charge density, pseudopotentials, collected wavefunctions

     init_run     :     27.13s CPU     27.94s WALL (       1 calls)
     electrons    :    886.65s CPU    902.97s WALL (       1 calls)

     Called by init_run:
     wfcinit      :     14.67s CPU     15.02s WALL (       1 calls)
     potinit      :     11.40s CPU     11.72s WALL (       1 calls)
     hinit0       :      0.10s CPU      0.11s WALL (       1 calls)

     Called by electrons:
     c_bands      :    746.22s CPU    753.11s WALL (      28 calls)
     sum_band     :     96.67s CPU    101.29s WALL (      28 calls)
     v_of_rho     :     28.42s CPU     29.88s WALL (      28 calls)
     newd         :     15.33s CPU     18.91s WALL (      28 calls)
     PAW_pot      :      2.30s CPU      2.33s WALL (      28 calls)
     mix_rho      :      9.44s CPU      9.53s WALL (      28 calls)
     vdW_kernel   :     10.50s CPU     10.75s WALL (       1 calls)

     Called by c_bands:
     init_us_2    :      4.54s CPU      4.55s WALL (    1710 calls)
     cegterg      :    729.86s CPU    736.44s WALL (     840 calls)

     Called by *egterg:
     cdiaghg      :     12.20s CPU     12.22s WALL (    4258 calls)
     h_psi        :    318.73s CPU    321.11s WALL (    4318 calls)
     s_psi        :     75.67s CPU     75.74s WALL (    4318 calls)
     g_psi        :      0.96s CPU      0.97s WALL (    3448 calls)

     Called by h_psi:
     h_psi:calbec :    106.25s CPU    107.24s WALL (    4318 calls)
     vloc_psi     :    126.12s CPU    127.41s WALL (    4318 calls)
                                        0.00s GPU  (    4318 calls)
     add_vuspsi   :     85.25s CPU     85.33s WALL (    4318 calls)

     General routines
     calbec       :    151.42s CPU    152.78s WALL (    5158 calls)
     fft          :     11.31s CPU     11.51s WALL (    1763 calls)
     ffts         :      3.61s CPU      3.64s WALL (    3254 calls)
     fftw         :    139.82s CPU    141.29s WALL (  257032 calls)
     interpolate  :      0.20s CPU      0.20s WALL (      28 calls)

     Parallel routines

     PWSCF        :  15m14.20s CPU  15m31.49s WALL


   This run was terminated on:  23: 1:10  18Jun2026            

=------------------------------------------------------------------------------=
   JOB DONE.
=------------------------------------------------------------------------------=
Note: The following floating-point exceptions are signalling: IEEE_UNDERFLOW_FLAG IEEE_DENORMAL
Note: The following floating-point exceptions are signalling: IEEE_UNDERFLOW_FLAG IEEE_DENORMAL
Note: The following floating-point exceptions are signalling: IEEE_UNDERFLOW_FLAG IEEE_DENORMAL
Note: The following floating-point exceptions are signalling: IEEE_UNDERFLOW_FLAG IEEE_DENORMAL
Note: The following floating-point exceptions are signalling: IEEE_UNDERFLOW_FLAG IEEE_DENORMAL
Note: The following floating-point exceptions are signalling: IEEE_UNDERFLOW_FLAG IEEE_DENORMAL
Note: The following floating-point exceptions are signalling: IEEE_UNDERFLOW_FLAG IEEE_DENORMAL
Note: The following floating-point exceptions are signalling: IEEE_UNDERFLOW_FLAG IEEE_DENORMAL
Note: The following floating-point exceptions are signalling: IEEE_UNDERFLOW_FLAG IEEE_DENORMAL
Note: The following floating-point exceptions are signalling: IEEE_UNDERFLOW_FLAG IEEE_DENORMAL
Note: The following floating-point exceptions are signalling: IEEE_UNDERFLOW_FLAG IEEE_DENORMAL
Note: The following floating-point exceptions are signalling: IEEE_UNDERFLOW_FLAG IEEE_DENORMAL
