
     Program PWSCF v.7.5 starts on 18Jun2026 at 17:45: 7 

     This program is part of the open-source Quantum ESPRESSO suite
     for quantum simulation of materials; please cite
         "P. Giannozzi et al., J. Phys.:Condens. Matter 21 395502 (2009);
         "P. Giannozzi et al., J. Phys.:Condens. Matter 29 465901 (2017);
         "P. Giannozzi et al., J. Chem. Phys. 152 154105 (2020);
          URL http://www.quantum-espresso.org", 
     in publications or presentations arising from this work. More details at
     http://www.quantum-espresso.org/quote

     Parallel version (MPI), running on    12 processors

     MPI processes distributed on     1 nodes
     24344 MiB available memory on the printing compute node when the environment starts

     Waiting for input...
     Reading input from standard input

     Current dimensions of program PWSCF are:
     Max number of different atomic species (ntypx) = 10
     Max number of k-points (npk) =  40000
     Max angular momentum in pseudopotentials (lmaxx) =  4
     file W.pbe-spn-kjpaw_psl.1.0.0.UPF: wavefunction(s)  6S 5P 5D renormalized
     file Se.pbe-dn-kjpaw_psl.1.0.0.UPF: wavefunction(s)  4S 4P 3D renormalized

     IMPORTANT: XC functional enforced from input :
     Exchange-correlation= VDW-DF2-B86R
                           (   1   4  26   0   2   0   0)
     Any further DFT definition will be discarded
     Please, verify this is what you really want


     R & G space division:  proc/nbgrp/npool/nimage =      12
     Subspace diagonalization in iterative solution of the eigenvalue problem:
     a serial algorithm will be used


     Parallelization info
     --------------------
     sticks:   dense  smooth     PW     G-vecs:    dense   smooth      PW
     Min         139      70     20                71489    25322    3895
     Max         140      71     22                71558    25395    3945
     Sum        1675     847    253               858263   304337   46813

     Using Slab Decomposition



     bravais-lattice index     =            4
     lattice parameter (alat)  =       6.1983  a.u.
     unit-cell volume          =    3143.7277 (a.u.)^3
     number of atoms/cell      =            6
     number of atomic types    =            2
     number of electrons       =        92.00
     number of Kohn-Sham states=           55
     kinetic-energy cutoff     =      80.0000  Ry
     charge density cutoff     =     640.0000  Ry
     scf convergence threshold =      1.0E-07
     mixing beta               =       0.1000
     number of iterations used =           12  local-TF  mixing
     Exchange-correlation= VDW-DF2-B86R
                           (   1   4  26   0   2   0   0)

     celldm(1)=   6.198302  celldm(2)=   0.000000  celldm(3)=  15.243902
     celldm(4)=   0.000000  celldm(5)=   0.000000  celldm(6)=   0.000000

     crystal axes: (cart. coord. in units of alat)
               a(1) = (   1.000000   0.000000   0.000000 )  
               a(2) = (  -0.500000   0.866025   0.000000 )  
               a(3) = (   0.000000   0.000000  15.243902 )  

     reciprocal axes: (cart. coord. in units 2 pi/alat)
               b(1) = (  1.000000  0.577350 -0.000000 )  
               b(2) = (  0.000000  1.154701  0.000000 )  
               b(3) = (  0.000000 -0.000000  0.065600 )  


     PseudoPot. # 1 for W  read from file:
     ./pseudo/W.pbe-spn-kjpaw_psl.1.0.0.UPF
     MD5 check sum: 03c3df5b60893f488392c7401945500a
     Pseudo is Projector augmented-wave + core cor, Zval = 14.0
     Generated using &quot;atomic&quot; code by A. Dal Corso  v.6.2.2
     Shape of augmentation charge: PSQ
     Using radial grid of 1273 points,  6 beta functions with: 
                l(1) =   0
                l(2) =   0
                l(3) =   1
                l(4) =   1
                l(5) =   2
                l(6) =   2
     Q(r) pseudized with 0 coefficients 


     PseudoPot. # 2 for Se read from file:
     ./pseudo/Se.pbe-dn-kjpaw_psl.1.0.0.UPF
     MD5 check sum: ac240dd2bae32a30e0bf3a38df9c8785
     Pseudo is Projector augmented-wave + core cor, Zval = 16.0
     Generated using &quot;atomic&quot; code by A. Dal Corso  v.6.3
     Shape of augmentation charge: PSQ
     Using radial grid of 1211 points,  6 beta functions with: 
                l(1) =   0
                l(2) =   0
                l(3) =   1
                l(4) =   1
                l(5) =   2
                l(6) =   2
     Q(r) pseudized with 0 coefficients 


     atomic species   valence    mass     pseudopotential
     W                14.00   183.84000     W ( 1.00)
     Se               16.00    78.96000     Se( 1.00)

      6 Sym. Ops. (no inversion) found



   Cartesian axes

     site n.     atom                  positions (alat units)
         1        Se     tau(   1) = (  -0.0000005   0.5773506   6.1149390  )
         2        W      tau(   2) = (   0.0000000   0.0000000   6.6383232  )
         3        Se     tau(   3) = (   0.5000005   0.2886748   7.1618445  )
         4        Se     tau(   4) = (  -0.0000005   0.5773506   9.3011433  )
         5        W      tau(   5) = (   0.5000005   0.2886748   9.8243902  )
         6        Se     tau(   6) = (   0.0000000   0.0000000  10.3484756  )

     number of k points=    30  Methfessel-Paxton smearing, width (Ry)=  0.0200
                       cart. coord. in units 2pi/alat
        k(    1) = (   0.0000000   0.0000000   0.0000000), wk =   0.0078125
        k(    2) = (   0.0000000   0.0721688   0.0000000), wk =   0.0468750
        k(    3) = (   0.0000000   0.1443376   0.0000000), wk =   0.0468750
        k(    4) = (   0.0000000   0.2165064   0.0000000), wk =   0.0468750
        k(    5) = (   0.0000000   0.2886751   0.0000000), wk =   0.0468750
        k(    6) = (   0.0000000   0.3608439   0.0000000), wk =   0.0468750
        k(    7) = (   0.0000000   0.4330127   0.0000000), wk =   0.0468750
        k(    8) = (   0.0000000   0.5051815   0.0000000), wk =   0.0468750
        k(    9) = (   0.0000000  -0.5773503   0.0000000), wk =   0.0234375
        k(   10) = (   0.0625000   0.1082532   0.0000000), wk =   0.0468750
        k(   11) = (   0.0625000   0.1804220   0.0000000), wk =   0.0937500
        k(   12) = (   0.0625000   0.2525907   0.0000000), wk =   0.0937500
        k(   13) = (   0.0625000   0.3247595   0.0000000), wk =   0.0937500
        k(   14) = (   0.0625000   0.3969283   0.0000000), wk =   0.0937500
        k(   15) = (   0.0625000   0.4690971   0.0000000), wk =   0.0937500
        k(   16) = (   0.0625000   0.5412659   0.0000000), wk =   0.0937500
        k(   17) = (   0.1250000   0.2165064   0.0000000), wk =   0.0468750
        k(   18) = (   0.1250000   0.2886751   0.0000000), wk =   0.0937500
        k(   19) = (   0.1250000   0.3608439   0.0000000), wk =   0.0937500
        k(   20) = (   0.1250000   0.4330127   0.0000000), wk =   0.0937500
        k(   21) = (   0.1250000   0.5051815   0.0000000), wk =   0.0937500
        k(   22) = (   0.1250000   0.5773503   0.0000000), wk =   0.0468750
        k(   23) = (   0.1875000   0.3247595   0.0000000), wk =   0.0468750
        k(   24) = (   0.1875000   0.3969283   0.0000000), wk =   0.0937500
        k(   25) = (   0.1875000   0.4690971   0.0000000), wk =   0.0937500
        k(   26) = (   0.1875000   0.5412659   0.0000000), wk =   0.0937500
        k(   27) = (   0.2500000   0.4330127   0.0000000), wk =   0.0468750
        k(   28) = (   0.2500000   0.5051815   0.0000000), wk =   0.0937500
        k(   29) = (   0.2500000   0.5773503   0.0000000), wk =   0.0468750
        k(   30) = (   0.3125000   0.5412659   0.0000000), wk =   0.0468750

     Dense  grid:   858263 G-vectors     FFT dimensions: (  50,  50, 768)

     Smooth grid:   304337 G-vectors     FFT dimensions: (  36,  36, 540)

     Estimated max dynamical RAM per process >     350.14 MB

     Estimated total dynamical RAM >       4.10 GB

     Initial potential from superposition of free atoms

     starting charge      91.9986, renormalised to      92.0000

     negative rho (up, down):  1.629E-04 0.000E+00


     %%%%%%%%%%%%%%%%%%%%%%%%%%%%%%%%%%%%%%%%%%%%%%%%%%%%%%%%%%%%%%%%%%%%%%%%
     %                                                                      %
     % You are using vdW-DF, which was implemented by the Thonhauser group. %
     % Please cite the following two papers that made this development      %
     % possible and the two reviews that describe the various versions:     %
     %                                                                      %
     %   T. Thonhauser et al., PRL 115, 136402 (2015).                      %
     %   T. Thonhauser et al., PRB 76, 125112 (2007).                       %
     %   K. Berland et al., Rep. Prog. Phys. 78, 066501 (2015).             %
     %   D.C. Langreth et al., J. Phys.: Condens. Matter 21, 084203 (2009). %
     %                                                                      %
     % If you are calculating stress with vdW-DF, please also cite:         %
     %                                                                      %
     %   R. Sabatini et al., J. Phys.: Condens. Matter 24, 424209 (2012).   %
     %                                                                      %
     %%%%%%%%%%%%%%%%%%%%%%%%%%%%%%%%%%%%%%%%%%%%%%%%%%%%%%%%%%%%%%%%%%%%%%%%

     %%%%%%%%%%%%%%%%%%%%%%%%%%%%%%%%%%%%%%%%%%%%%%%%%%%%%%%%%%%%%%%%%%%%%%%%
     %                                                                      %
     %  vdW-DF NEWS:                                                        %
     %                                                                      %
     %  * vdW-DF3 is now available. DOI: 10.1021/acs.jctc.0c00471           %
     %    use with input_dft = 'vdW-DF3-opt1' or 'vdW-DF3-opt2'             %
     %                                                                      %
     %  * Unscreened and range-separated hybrid vdW-DF-cx functionals       %
     %    DOI: 10.1063/1.4986522 and 10.1088/1361-648X/ac2ad2               %
     %    use with input_dft = 'vdW-DF-cx0'    and 'vdW-DF-ahcx'            %
     %  * Unscreened and range-separated hybrid vdW-DF2-b86r functionals    %
     %    DOI: 10.1063/1.4986522 and DOI: 10.1103/PhysRevX.12.041003        %
     %    use with input_dft = 'vdW-DF2-br0' and 'vdW-DF2-ahbr'             %
     %                                                                      %
     %%%%%%%%%%%%%%%%%%%%%%%%%%%%%%%%%%%%%%%%%%%%%%%%%%%%%%%%%%%%%%%%%%%%%%%%


     Starting wfcs are   62 randomized atomic wfcs
     Checking if some PAW data can be deallocated... 

     total cpu time spent up to now is       51.9 secs

     per-process dynamical memory:   142.9 Mb

     Self-consistent Calculation

     iteration #  1     ecut=    80.00 Ry     beta= 0.10
     Davidson diagonalization with overlap
     ethr =  1.00E-02,  avg # of iterations =  4.3

     Threshold (ethr) on eigenvalues was too large:
     Diagonalizing with lowered threshold

     Davidson diagonalization with overlap
     ethr =  1.09E-04,  avg # of iterations =  5.4

     negative rho (up, down):  8.173E-05 0.000E+00

     total cpu time spent up to now is      218.8 secs

     total energy              =   -3113.99294367 Ry
     estimated scf accuracy    <       0.12883481 Ry

     iteration #  2     ecut=    80.00 Ry     beta= 0.10
     Davidson diagonalization with overlap
     ethr =  1.40E-04,  avg # of iterations =  1.0

     negative rho (up, down):  7.144E-05 0.000E+00

     total cpu time spent up to now is      287.3 secs

     total energy              =   -3113.94970249 Ry
     estimated scf accuracy    <       0.11742396 Ry

     iteration #  3     ecut=    80.00 Ry     beta= 0.10
     Davidson diagonalization with overlap
     ethr =  1.28E-04,  avg # of iterations =  2.4

     negative rho (up, down):  2.788E-05 0.000E+00

     total cpu time spent up to now is      369.3 secs

     total energy              =   -3113.96363965 Ry
     estimated scf accuracy    <       0.02537392 Ry

     iteration #  4     ecut=    80.00 Ry     beta= 0.10
     Davidson diagonalization with overlap
     ethr =  2.76E-05,  avg # of iterations =  2.2

     negative rho (up, down):  1.478E-06 0.000E+00

     total cpu time spent up to now is      435.8 secs

     total energy              =   -3113.95866185 Ry
     estimated scf accuracy    <       0.02246540 Ry

     iteration #  5     ecut=    80.00 Ry     beta= 0.10
     Davidson diagonalization with overlap
     ethr =  2.44E-05,  avg # of iterations =  4.1

     negative rho (up, down):  1.231E-06 0.000E+00

     total cpu time spent up to now is      519.8 secs

     total energy              =   -3113.96056724 Ry
     estimated scf accuracy    <       0.00304609 Ry

     iteration #  6     ecut=    80.00 Ry     beta= 0.10
     Davidson diagonalization with overlap
     c_bands:  1 eigenvalues not converged
     c_bands:  1 eigenvalues not converged
     c_bands:  1 eigenvalues not converged
     ethr =  3.31E-06,  avg # of iterations =  8.1

     negative rho (up, down):  3.496E-07 0.000E+00

     total cpu time spent up to now is      600.7 secs

     total energy              =   -3113.95939326 Ry
     estimated scf accuracy    <       0.00280155 Ry

     iteration #  7     ecut=    80.00 Ry     beta= 0.10
     Davidson diagonalization with overlap
     ethr =  3.05E-06,  avg # of iterations =  5.7

     negative rho (up, down):  2.589E-07 0.000E+00

     total cpu time spent up to now is      688.6 secs

     total energy              =   -3113.95918594 Ry
     estimated scf accuracy    <       0.00426579 Ry

     iteration #  8     ecut=    80.00 Ry     beta= 0.10
     Davidson diagonalization with overlap
     ethr =  3.05E-06,  avg # of iterations =  2.5

     negative rho (up, down):  3.286E-08 0.000E+00

     total cpu time spent up to now is      763.4 secs

     total energy              =   -3113.95928532 Ry
     estimated scf accuracy    <       0.00078330 Ry

     iteration #  9     ecut=    80.00 Ry     beta= 0.10
     Davidson diagonalization with overlap
     ethr =  8.51E-07,  avg # of iterations =  6.9

     negative rho (up, down):  4.589E-08 0.000E+00

     total cpu time spent up to now is      848.8 secs

     total energy              =   -3113.95928707 Ry
     estimated scf accuracy    <       0.00053184 Ry

     iteration # 10     ecut=    80.00 Ry     beta= 0.10
     Davidson diagonalization with overlap
     ethr =  5.78E-07,  avg # of iterations =  1.6

     total cpu time spent up to now is      915.1 secs

     total energy              =   -3113.95928615 Ry
     estimated scf accuracy    <       0.00043112 Ry

     iteration # 11     ecut=    80.00 Ry     beta= 0.10
     Davidson diagonalization with overlap
     ethr =  4.69E-07,  avg # of iterations =  1.0

     total cpu time spent up to now is      975.8 secs

     total energy              =   -3113.95928798 Ry
     estimated scf accuracy    <       0.00039028 Ry

     iteration # 12     ecut=    80.00 Ry     beta= 0.10
     Davidson diagonalization with overlap
     ethr =  4.24E-07,  avg # of iterations =  1.0

     negative rho (up, down):  1.965E-03 0.000E+00

     total cpu time spent up to now is     1044.7 secs

     total energy              =   -3113.95922404 Ry
     estimated scf accuracy    <       0.00036013 Ry

     iteration # 13     ecut=    80.00 Ry     beta= 0.10
     Davidson diagonalization with overlap
     ethr =  3.91E-07,  avg # of iterations =  1.9

     negative rho (up, down):  3.194E-03 0.000E+00

     total cpu time spent up to now is     1114.8 secs

     total energy              =   -3113.95923482 Ry
     estimated scf accuracy    <       0.00028098 Ry

     iteration # 14     ecut=    80.00 Ry     beta= 0.10
     Davidson diagonalization with overlap
     ethr =  3.05E-07,  avg # of iterations =  1.1

     negative rho (up, down):  3.695E-03 0.000E+00

     total cpu time spent up to now is     1183.3 secs

     total energy              =   -3113.95921850 Ry
     estimated scf accuracy    <       0.00024325 Ry

     iteration # 15     ecut=    80.00 Ry     beta= 0.10
     Davidson diagonalization with overlap
     ethr =  2.64E-07,  avg # of iterations =  2.0

     negative rho (up, down):  3.451E-03 0.000E+00

     total cpu time spent up to now is     1262.7 secs

     total energy              =   -3113.95925238 Ry
     estimated scf accuracy    <       0.00030031 Ry

     iteration # 16     ecut=    80.00 Ry     beta= 0.10
     Davidson diagonalization with overlap
     ethr =  2.64E-07,  avg # of iterations =  1.0

     negative rho (up, down):  4.789E-03 0.000E+00

     total cpu time spent up to now is     1328.7 secs

     total energy              =   -3113.95921724 Ry
     estimated scf accuracy    <       0.00031525 Ry

     iteration # 17     ecut=    80.00 Ry     beta= 0.10
     Davidson diagonalization with overlap
     ethr =  2.64E-07,  avg # of iterations =  2.2

     negative rho (up, down):  3.758E-03 0.000E+00

     total cpu time spent up to now is     1396.4 secs

     total energy              =   -3113.95917231 Ry
     estimated scf accuracy    <       0.00027161 Ry

     iteration # 18     ecut=    80.00 Ry     beta= 0.10
     Davidson diagonalization with overlap
     ethr =  2.64E-07,  avg # of iterations =  2.0

     negative rho (up, down):  3.253E-03 0.000E+00

     total cpu time spent up to now is     1473.1 secs

     total energy              =   -3113.95919648 Ry
     estimated scf accuracy    <       0.00006956 Ry

     iteration # 19     ecut=    80.00 Ry     beta= 0.10
     Davidson diagonalization with overlap
     ethr =  7.56E-08,  avg # of iterations =  1.3

     negative rho (up, down):  1.228E-03 0.000E+00

     total cpu time spent up to now is     1539.8 secs

     total energy              =   -3113.95915912 Ry
     estimated scf accuracy    <       0.00006372 Ry

     iteration # 20     ecut=    80.00 Ry     beta= 0.10
     Davidson diagonalization with overlap
     ethr =  6.93E-08,  avg # of iterations =  2.3

     negative rho (up, down):  7.558E-04 0.000E+00

     total cpu time spent up to now is     1617.8 secs

     total energy              =   -3113.95917159 Ry
     estimated scf accuracy    <       0.00005511 Ry

     iteration # 21     ecut=    80.00 Ry     beta= 0.10
     Davidson diagonalization with overlap
     ethr =  5.99E-08,  avg # of iterations =  2.0

     negative rho (up, down):  9.220E-04 0.000E+00

     total cpu time spent up to now is     1694.9 secs

     total energy              =   -3113.95917554 Ry
     estimated scf accuracy    <       0.00002015 Ry

     iteration # 22     ecut=    80.00 Ry     beta= 0.10
     Davidson diagonalization with overlap
     ethr =  2.19E-08,  avg # of iterations =  2.0

     negative rho (up, down):  9.401E-04 0.000E+00

     total cpu time spent up to now is     1776.0 secs

     total energy              =   -3113.95917732 Ry
     estimated scf accuracy    <       0.00003605 Ry

     iteration # 23     ecut=    80.00 Ry     beta= 0.10
     Davidson diagonalization with overlap
     ethr =  2.19E-08,  avg # of iterations =  1.0

     negative rho (up, down):  2.463E-04 0.000E+00

     total cpu time spent up to now is     1840.7 secs

     total energy              =   -3113.95917799 Ry
     estimated scf accuracy    <       0.00002737 Ry

     iteration # 24     ecut=    80.00 Ry     beta= 0.10
     Davidson diagonalization with overlap
     ethr =  2.19E-08,  avg # of iterations =  1.9

     negative rho (up, down):  3.508E-04 0.000E+00

     total cpu time spent up to now is     1910.2 secs

     total energy              =   -3113.95917887 Ry
     estimated scf accuracy    <       0.00000831 Ry

     iteration # 25     ecut=    80.00 Ry     beta= 0.10
     Davidson diagonalization with overlap
     ethr =  9.04E-09,  avg # of iterations =  2.0

     negative rho (up, down):  2.764E-04 0.000E+00

     total cpu time spent up to now is     1988.3 secs

     total energy              =   -3113.95918410 Ry
     estimated scf accuracy    <       0.00000148 Ry

     iteration # 26     ecut=    80.00 Ry     beta= 0.10
     Davidson diagonalization with overlap
     ethr =  1.61E-09,  avg # of iterations =  2.4

     negative rho (up, down):  2.066E-04 0.000E+00

     total cpu time spent up to now is     2070.9 secs

     total energy              =   -3113.95918453 Ry
     estimated scf accuracy    <       0.00000213 Ry

     iteration # 27     ecut=    80.00 Ry     beta= 0.10
     Davidson diagonalization with overlap
     ethr =  1.61E-09,  avg # of iterations =  1.0

     negative rho (up, down):  1.273E-04 0.000E+00

     total cpu time spent up to now is     2142.0 secs

     total energy              =   -3113.95918379 Ry
     estimated scf accuracy    <       0.00000119 Ry

     iteration # 28     ecut=    80.00 Ry     beta= 0.10
     Davidson diagonalization with overlap
     ethr =  1.30E-09,  avg # of iterations =  2.1

     negative rho (up, down):  2.302E-04 0.000E+00

     total cpu time spent up to now is     2221.2 secs

     total energy              =   -3113.95918167 Ry
     estimated scf accuracy    <       0.00000108 Ry

     iteration # 29     ecut=    80.00 Ry     beta= 0.10
     Davidson diagonalization with overlap
     ethr =  1.17E-09,  avg # of iterations =  2.0

     negative rho (up, down):  2.299E-04 0.000E+00

     total cpu time spent up to now is     2308.3 secs

     total energy              =   -3113.95918178 Ry
     estimated scf accuracy    <       0.00000016 Ry

     iteration # 30     ecut=    80.00 Ry     beta= 0.10
     Davidson diagonalization with overlap
     ethr =  1.79E-10,  avg # of iterations =  2.0

     negative rho (up, down):  1.606E-04 0.000E+00

     total cpu time spent up to now is     2385.7 secs

     End of self-consistent calculation

          k = 0.0000 0.0000 0.0000 ( 38015 PWs)   bands (ev):

   -74.8824 -74.8820 -48.1471 -48.1471 -48.1467 -48.1467 -48.1458 -48.1458
   -48.1453 -48.1453 -48.1163 -48.1163 -48.1161 -48.1161 -48.1151 -48.1151
   -48.1148 -48.1148 -48.1023 -48.1019 -48.1010 -48.1006 -39.0755 -39.0750
   -39.0402 -39.0402 -39.0395 -39.0395 -15.5121 -15.5091 -14.4413 -14.4401
    -6.9741  -6.9716  -3.3532  -3.3532  -3.3485  -3.3485  -3.3386  -3.3226
    -1.3342  -1.3129  -0.6893  -0.6892  -0.6871  -0.6871   0.2067   0.2068
     0.2089   0.2089   2.7669   3.4092   3.4092   3.4109   3.4110

          k = 0.0000 0.0722 0.0000 ( 37975 PWs)   bands (ev):

   -74.8820 -74.8816 -48.1471 -48.1469 -48.1467 -48.1465 -48.1458 -48.1457
   -48.1453 -48.1451 -48.1164 -48.1164 -48.1161 -48.1161 -48.1151 -48.1151
   -48.1148 -48.1147 -48.1022 -48.1018 -48.1009 -48.1005 -39.0737 -39.0732
   -39.0493 -39.0485 -39.0424 -39.0416 -15.4510 -15.4480 -14.4132 -14.4120
    -6.8917  -6.8892  -3.8420  -3.8360  -3.3185  -3.3139  -2.9261  -2.9156
    -1.4044  -1.3900  -0.9774  -0.9727  -0.9183  -0.9159   0.1908   0.1988
     0.4082   0.4101   2.8250   3.0795   3.1327   3.3675   3.3693

          k = 0.0000 0.1443 0.0000 ( 37895 PWs)   bands (ev):

   -74.8809 -74.8805 -48.1470 -48.1467 -48.1464 -48.1459 -48.1457 -48.1454
   -48.1451 -48.1446 -48.1167 -48.1165 -48.1163 -48.1161 -48.1154 -48.1152
   -48.1149 -48.1147 -48.1019 -48.1016 -48.1007 -48.1003 -39.0752 -39.0744
   -39.0684 -39.0679 -39.0484 -39.0476 -15.2719 -15.2690 -14.3313 -14.3299
    -6.6520  -6.6494  -4.3463  -4.3416  -3.2355  -3.2309  -2.7030  -2.6935
    -2.0379  -2.0349  -1.3019  -1.2993  -1.1972  -1.1838   0.1871   0.2040
     0.7123   0.7136   2.4332   2.5180   3.2508   3.2912   3.2928

          k = 0.0000 0.2165 0.0000 ( 37851 PWs)   bands (ev):

   -74.8791 -74.8788 -48.1469 -48.1468 -48.1457 -48.1456 -48.1454 -48.1452
   -48.1443 -48.1438 -48.1171 -48.1167 -48.1165 -48.1161 -48.1158 -48.1154
   -48.1151 -48.1148 -48.1016 -48.1012 -48.1003 -48.0999 -39.1135 -39.1126
   -39.0607 -39.0603 -39.0574 -39.0566 -14.9886 -14.9857 -14.2019 -14.2004
    -6.2843  -6.2818  -4.7984  -4.7943  -3.2966  -3.2941  -3.1725  -3.1680
    -2.4488  -2.4404  -1.5946  -1.5917  -1.3327  -1.3252   0.2235   0.2445
     0.9151   0.9160   2.1295   2.2139   3.2648   3.2663   3.6358

          k = 0.0000 0.2887 0.0000 ( 37919 PWs)   bands (ev):

   -74.8771 -74.8768 -48.1470 -48.1468 -48.1458 -48.1454 -48.1447 -48.1443
   -48.1435 -48.1430 -48.1175 -48.1169 -48.1167 -48.1162 -48.1161 -48.1156
   -48.1154 -48.1148 -48.1011 -48.1007 -48.0999 -48.0995 -39.1584 -39.1575
   -39.0680 -39.0672 -39.0516 -39.0512 -14.6277 -14.6250 -14.0338 -14.0320
    -5.8934  -5.8909  -5.1148  -5.1113  -4.3545  -4.3518  -3.2181  -3.2138
    -2.6188  -2.6134  -1.6923  -1.6893  -1.6349  -1.6315   0.3819   0.4026
     1.0200   1.0207   2.2645   2.3600   3.3100   3.3115   4.1225

          k = 0.0000 0.3608 0.0000 ( 37933 PWs)   bands (ev):

   -74.8751 -74.8748 -48.1472 -48.1466 -48.1459 -48.1453 -48.1438 -48.1435
   -48.1426 -48.1421 -48.1180 -48.1170 -48.1169 -48.1167 -48.1161 -48.1157
   -48.1156 -48.1148 -48.1007 -48.1003 -48.0994 -48.0990 -39.2029 -39.2021
   -39.0786 -39.0778 -39.0425 -39.0420 -14.2431 -14.2405 -13.8288 -13.8268
    -5.9048  -5.9020  -5.3310  -5.3284  -4.9136  -4.9108  -3.3671  -3.3631
    -2.9642  -2.9614  -1.9387  -1.9364  -1.6319  -1.6288   0.7238   0.7407
     1.1133   1.1142   2.7065   2.8065   3.3838   3.3856   4.6537

          k = 0.0000 0.4330 0.0000 ( 37998 PWs)   bands (ev):

   -74.8734 -74.8731 -48.1473 -48.1466 -48.1460 -48.1452 -48.1431 -48.1428
   -48.1418 -48.1414 -48.1184 -48.1172 -48.1171 -48.1171 -48.1162 -48.1159
   -48.1158 -48.1149 -48.1003 -48.0999 -48.0991 -48.0986 -39.2404 -39.2395
   -39.0876 -39.0868 -39.0347 -39.0343 -13.9386 -13.9359 -13.5658 -13.5637
    -6.5194  -6.5164  -5.6003  -5.5978  -4.6909  -4.6888  -3.5317  -3.5278
    -3.2567  -3.2547  -2.1255  -2.1240  -1.5365  -1.5337   1.1922   1.2040
     1.2522   1.2535   3.2254   3.3015   3.4457   3.4476   4.5366

          k = 0.0000 0.5052 0.0000 ( 38048 PWs)   bands (ev):

   -74.8723 -74.8719 -48.1474 -48.1465 -48.1461 -48.1452 -48.1426 -48.1423
   -48.1413 -48.1410 -48.1186 -48.1173 -48.1173 -48.1172 -48.1162 -48.1160
   -48.1159 -48.1149 -48.1001 -48.0997 -48.0988 -48.0984 -39.2653 -39.2644
   -39.0936 -39.0928 -39.0295 -39.0291 -13.7771 -13.7742 -13.2975 -13.2955
    -7.0834  -7.0804  -5.6179  -5.6160  -4.7664  -4.7647  -3.6485  -3.6445
    -3.1894  -3.1875  -2.2433  -2.2424  -1.4751  -1.4726   1.4016   1.4033
     1.6665   1.6731   3.4485   3.4681   3.4820   3.4841   4.4813

          k = 0.0000-0.5774 0.0000 ( 38024 PWs)   bands (ev):

   -74.8719 -74.8715 -48.1474 -48.1464 -48.1461 -48.1451 -48.1424 -48.1422
   -48.1411 -48.1408 -48.1187 -48.1174 -48.1173 -48.1173 -48.1162 -48.1160
   -48.1159 -48.1149 -48.1000 -48.0996 -48.0987 -48.0983 -39.2740 -39.2731
   -39.0957 -39.0949 -39.0277 -39.0272 -13.7273 -13.7244 -13.1831 -13.1811
    -7.2962  -7.2931  -5.5826  -5.5810  -4.8886  -4.8867  -3.6898  -3.6859
    -3.0733  -3.0718  -2.2961  -2.2956  -1.4561  -1.4536   1.4682   1.4701
     1.8917   1.8940   3.4733   3.4848   3.4936   3.4957   4.1995

          k = 0.0625 0.1083 0.0000 ( 37895 PWs)   bands (ev):

   -74.8812 -74.8809 -48.1470 -48.1467 -48.1466 -48.1461 -48.1457 -48.1454
   -48.1453 -48.1448 -48.1166 -48.1165 -48.1162 -48.1161 -48.1153 -48.1152
   -48.1149 -48.1148 -48.1020 -48.1016 -48.1007 -48.1003 -39.0702 -39.0697
   -39.0665 -39.0657 -39.0467 -39.0459 -15.3309 -15.3279 -14.3583 -14.3569
    -6.7302  -6.7277  -4.2118  -4.2068  -3.2674  -3.2627  -2.7254  -2.7148
    -1.7784  -1.7756  -1.3109  -1.3081  -1.1076  -1.0938   0.2571   0.2714
     0.5607   0.5621   2.6338   2.7353   3.1463   3.2319   3.2670

          k = 0.0625 0.1804 0.0000 ( 37885 PWs)   bands (ev):

   -74.8798 -74.8795 -48.1469 -48.1468 -48.1459 -48.1457 -48.1455 -48.1454
   -48.1447 -48.1442 -48.1169 -48.1166 -48.1163 -48.1161 -48.1157 -48.1153
   -48.1150 -48.1148 -48.1017 -48.1013 -48.1004 -48.1000 -39.0978 -39.0970
   -39.0639 -39.0634 -39.0548 -39.0540 -15.0992 -15.0964 -14.2528 -14.2513
    -6.4223  -6.4198  -4.6434  -4.6391  -3.2588  -3.2544  -2.8031  -2.7987
    -2.4674  -2.4629  -1.6541  -1.6507  -1.1402  -1.1287   0.3169   0.3336
     0.6653   0.6698   2.3706   2.4560   3.0724   3.0844   3.5061

          k = 0.0625 0.2526 0.0000 ( 37916 PWs)   bands (ev):

   -74.8779 -74.8776 -48.1469 -48.1467 -48.1457 -48.1454 -48.1451 -48.1448
   -48.1439 -48.1434 -48.1174 -48.1168 -48.1165 -48.1162 -48.1161 -48.1155
   -48.1152 -48.1148 -48.1013 -48.1009 -48.1000 -48.0996 -39.1385 -39.1377
   -39.0659 -39.0651 -39.0551 -39.0547 -14.7752 -14.7725 -14.1049 -14.1032
    -6.0166  -6.0141  -5.0165  -5.0127  -3.8995  -3.8967  -3.1973  -3.1936
    -2.5980  -2.5933  -1.9145  -1.9117  -1.2073  -1.2012   0.2747   0.2899
     0.8700   0.8800   2.3110   2.3891   3.0754   3.0997   3.9395

          k = 0.0625 0.3248 0.0000 ( 37964 PWs)   bands (ev):

   -74.8759 -74.8756 -48.1470 -48.1466 -48.1457 -48.1453 -48.1443 -48.1439
   -48.1430 -48.1426 -48.1178 -48.1169 -48.1168 -48.1165 -48.1162 -48.1156
   -48.1155 -48.1149 -48.1009 -48.1005 -48.0996 -48.0992 -39.1821 -39.1813
   -39.0775 -39.0767 -39.0461 -39.0456 -14.3957 -14.3930 -13.9227 -13.9208
    -5.7452  -5.7426  -5.1861  -5.1832  -4.8227  -4.8198  -3.4302  -3.4269
    -2.7109  -2.7079  -2.2435  -2.2415  -1.2632  -1.2599   0.3896   0.4029
     1.1267   1.1347   2.4812   2.5483   3.2036   3.2471   4.4610

          k = 0.0625 0.3969 0.0000 ( 37981 PWs)   bands (ev):

   -74.8741 -74.8737 -48.1471 -48.1465 -48.1458 -48.1451 -48.1434 -48.1432
   -48.1422 -48.1418 -48.1182 -48.1171 -48.1170 -48.1169 -48.1162 -48.1159
   -48.1157 -48.1149 -48.1005 -48.1001 -48.0992 -48.0988 -39.2222 -39.2213
   -39.0882 -39.0874 -39.0377 -39.0372 -14.0381 -14.0355 -13.6964 -13.6944
    -6.1324  -6.1295  -5.5091  -5.5065  -4.7659  -4.7635  -3.6791  -3.6761
    -2.9771  -2.9753  -2.4720  -2.4702  -1.2570  -1.2547   0.6848   0.6936
     1.3976   1.4032   2.7831   2.8214   3.4166   3.4784   4.8512

          k = 0.0625 0.4691 0.0000 ( 38057 PWs)   bands (ev):

   -74.8727 -74.8723 -48.1472 -48.1464 -48.1460 -48.1451 -48.1429 -48.1426
   -48.1416 -48.1412 -48.1185 -48.1173 -48.1172 -48.1171 -48.1163 -48.1160
   -48.1158 -48.1150 -48.1002 -48.0998 -48.0989 -48.0985 -39.2526 -39.2518
   -39.0964 -39.0956 -39.0312 -39.0308 -13.8104 -13.8077 -13.4165 -13.4145
    -6.7849  -6.7819  -5.6129  -5.6107  -4.6514  -4.6496  -3.7932  -3.7900
    -3.1448  -3.1430  -2.5686  -2.5671  -1.2619  -1.2602   1.0632   1.0677
     1.6705   1.6747   3.0207   3.0337   3.6048   3.6370   4.7203

          k = 0.0625 0.5413 0.0000 ( 38034 PWs)   bands (ev):

   -74.8719 -74.8715 -48.1473 -48.1463 -48.1460 -48.1450 -48.1425 -48.1423
   -48.1413 -48.1409 -48.1187 -48.1174 -48.1174 -48.1171 -48.1163 -48.1162
   -48.1158 -48.1150 -48.1000 -48.0996 -48.0987 -48.0983 -39.2690 -39.2682
   -39.1008 -39.1000 -39.0277 -39.0273 -13.7109 -13.7080 -13.2100 -13.2080
    -7.1841  -7.1810  -5.5873  -5.5855  -4.8094  -4.8076  -3.8029  -3.7995
    -3.0676  -3.0660  -2.6189  -2.6177  -1.2887  -1.2872   1.3701   1.3719
     1.8435   1.8461   3.1801   3.1840   3.5310   3.5429   4.5114

          k = 0.1250 0.2165 0.0000 ( 37933 PWs)   bands (ev):

   -74.8782 -74.8779 -48.1468 -48.1467 -48.1456 -48.1453 -48.1453 -48.1450
   -48.1441 -48.1436 -48.1173 -48.1167 -48.1164 -48.1163 -48.1160 -48.1154
   -48.1151 -48.1149 -48.1014 -48.1010 -48.1001 -48.0997 -39.1302 -39.1294
   -39.0666 -39.0658 -39.0562 -39.0558 -14.8257 -14.8230 -14.1293 -14.1277
    -6.0612  -6.0587  -4.9685  -4.9646  -3.7337  -3.7303  -2.9758  -2.9721
    -2.8962  -2.8927  -1.9113  -1.9069  -1.0383  -1.0288   0.2788   0.2845
     0.6969   0.7172   2.6212   2.6953   2.6955   2.7306   3.8838

          k = 0.1250 0.2887 0.0000 ( 37936 PWs)   bands (ev):

   -74.8764 -74.8760 -48.1468 -48.1465 -48.1456 -48.1451 -48.1446 -48.1443
   -48.1433 -48.1429 -48.1177 -48.1168 -48.1166 -48.1164 -48.1164 -48.1155
   -48.1153 -48.1150 -48.1010 -48.1006 -48.0997 -48.0993 -39.1675 -39.1666
   -39.0803 -39.0795 -39.0480 -39.0475 -14.4766 -14.4740 -13.9712 -13.9693
    -5.6460  -5.6436  -5.2260  -5.2225  -4.5417  -4.5387  -3.4364  -3.4338
    -2.9726  -2.9697  -2.1951  -2.1926  -0.9244  -0.9180   0.0960   0.1048
     1.0813   1.0982   2.3922   2.4060   2.9890   3.0948   4.3608

          k = 0.1250 0.3608 0.0000 ( 38000 PWs)   bands (ev):

   -74.8745 -74.8742 -48.1469 -48.1463 -48.1456 -48.1449 -48.1439 -48.1436
   -48.1426 -48.1422 -48.1181 -48.1170 -48.1169 -48.1168 -48.1164 -48.1157
   -48.1156 -48.1151 -48.1006 -48.1002 -48.0993 -48.0989 -39.2042 -39.2034
   -39.0945 -39.0936 -39.0396 -39.0392 -14.1017 -14.0991 -13.7835 -13.7814
    -5.7178  -5.7149  -5.3672  -5.3643  -4.8985  -4.8957  -3.8241  -3.8215
    -3.0763  -3.0738  -2.6302  -2.6288  -0.8451  -0.8413   0.2069   0.2153
     1.4715   1.4812   2.3126   2.3262   3.3625   3.4633   4.8958

          k = 0.1250 0.4330 0.0000 ( 38048 PWs)   bands (ev):

   -74.8729 -74.8726 -48.1469 -48.1461 -48.1456 -48.1448 -48.1433 -48.1430
   -48.1420 -48.1417 -48.1184 -48.1173 -48.1171 -48.1169 -48.1165 -48.1160
   -48.1156 -48.1152 -48.1002 -48.0999 -48.0990 -48.0986 -39.2351 -39.2342
   -39.1065 -39.1057 -39.0325 -39.0321 -13.8088 -13.8062 -13.5393 -13.5371
    -6.3507  -6.3478  -5.5594  -5.5567  -4.5545  -4.5525  -4.0743  -4.0716
    -3.2059  -3.2037  -3.0003  -2.9989  -0.8649  -0.8628   0.5609   0.5670
     1.7605   1.7644   2.4182   2.4293   3.6846   3.7483   5.0498

          k = 0.1250 0.5052 0.0000 ( 38027 PWs)   bands (ev):

   -74.8719 -74.8715 -48.1469 -48.1460 -48.1456 -48.1446 -48.1428 -48.1426
   -48.1416 -48.1413 -48.1185 -48.1175 -48.1172 -48.1169 -48.1165 -48.1162
   -48.1157 -48.1152 -48.1000 -48.0996 -48.0987 -48.0984 -39.2556 -39.2547
   -39.1146 -39.1138 -39.0277 -39.0273 -13.6629 -13.6601 -13.2829 -13.2808
    -6.8713  -6.8683  -5.5827  -5.5805  -4.6161  -4.6143  -4.0402  -4.0374
    -3.2950  -3.2930  -3.1041  -3.1026  -0.9526  -0.9515   1.0169   1.0203
     1.8430   1.8446   2.6175   2.6243   3.7074   3.7240   4.9529

          k = 0.1250 0.5774 0.0000 ( 37968 PWs)   bands (ev):

   -74.8715 -74.8712 -48.1469 -48.1459 -48.1456 -48.1446 -48.1426 -48.1425
   -48.1414 -48.1411 -48.1186 -48.1176 -48.1173 -48.1169 -48.1165 -48.1163
   -48.1157 -48.1152 -48.0999 -48.0995 -48.0986 -48.0983 -39.2627 -39.2619
   -39.1175 -39.1166 -39.0260 -39.0256 -13.6181 -13.6153 -13.1755 -13.1734
    -7.0644  -7.0614  -5.5665  -5.5646  -4.7218  -4.7199  -4.0188  -4.0159
    -3.3147  -3.3129  -3.0725  -3.0710  -1.0043  -1.0034   1.3117   1.3130
     1.7520   1.7534   2.7568   2.7587   3.5788   3.5918   4.9653

          k = 0.1875 0.3248 0.0000 ( 37987 PWs)   bands (ev):

   -74.8747 -74.8743 -48.1467 -48.1461 -48.1454 -48.1448 -48.1441 -48.1438
   -48.1428 -48.1424 -48.1181 -48.1169 -48.1168 -48.1168 -48.1166 -48.1156
   -48.1155 -48.1153 -48.1006 -48.1002 -48.0993 -48.0990 -39.1961 -39.1953
   -39.0985 -39.0977 -39.0403 -39.0399 -14.1237 -14.1211 -13.8138 -13.8117
    -5.4142  -5.4111  -5.3927  -5.3901  -4.9756  -4.9727  -3.8257  -3.8236
    -3.3829  -3.3797  -2.5088  -2.5076  -0.5930  -0.5875  -0.0613  -0.0540
     1.4762   1.4889   2.1237   2.1292   3.3473   3.4595   4.8611

          k = 0.1875 0.3969 0.0000 ( 38014 PWs)   bands (ev):

   -74.8731 -74.8727 -48.1465 -48.1458 -48.1453 -48.1445 -48.1436 -48.1434
   -48.1424 -48.1420 -48.1183 -48.1171 -48.1170 -48.1169 -48.1167 -48.1158
   -48.1156 -48.1154 -48.1003 -48.0999 -48.0990 -48.0986 -39.2208 -39.2199
   -39.1169 -39.1161 -39.0332 -39.0328 -13.7809 -13.7784 -13.6339 -13.6316
    -5.9331  -5.9303  -5.5127  -5.5096  -4.6015  -4.5991  -4.1787  -4.1766
    -3.7271  -3.7243  -2.9121  -2.9112  -0.4272  -0.4239   0.0841   0.0897
     1.7946   1.8007   2.0377   2.0455   3.7195   3.8006   5.3573

          k = 0.1875 0.4691 0.0000 ( 38010 PWs)   bands (ev):

   -74.8719 -74.8715 -48.1464 -48.1455 -48.1451 -48.1442 -48.1433 -48.1430
   -48.1420 -48.1417 -48.1184 -48.1175 -48.1171 -48.1169 -48.1168 -48.1162
   -48.1156 -48.1154 -48.1000 -48.0997 -48.0987 -48.0984 -39.2387 -39.2378
   -39.1318 -39.1310 -39.0277 -39.0273 -13.5872 -13.5846 -13.3827 -13.3804
    -6.4479  -6.4450  -5.5633  -5.5606  -4.4312  -4.4290  -4.2327  -4.2305
    -3.9786  -3.9763  -3.2099  -3.2088  -0.5216  -0.5200   0.5259   0.5293
     1.8551   1.8570   2.2044   2.2131   3.8892   3.9181   5.2374

          k = 0.1875 0.5413 0.0000 ( 38010 PWs)   bands (ev):

   -74.8712 -74.8709 -48.1463 -48.1454 -48.1450 -48.1441 -48.1430 -48.1429
   -48.1418 -48.1415 -48.1184 -48.1177 -48.1171 -48.1169 -48.1168 -48.1164
   -48.1156 -48.1155 -48.0999 -48.0995 -48.0986 -48.0983 -39.2481 -39.2472
   -39.1402 -39.1393 -39.0248 -39.0244 -13.5088 -13.5061 -13.1990 -13.1968
    -6.7475  -6.7445  -5.5710  -5.5685  -4.5626  -4.5603  -4.1691  -4.1669
    -4.0566  -4.0547  -3.2628  -3.2614  -0.6299  -0.6290   0.9966   0.9980
     1.6244   1.6256   2.4833   2.4887   3.6966   3.7078   5.2583

          k = 0.2500 0.4330 0.0000 ( 38031 PWs)   bands (ev):

   -74.8719 -74.8715 -48.1462 -48.1453 -48.1449 -48.1440 -48.1435 -48.1432
   -48.1423 -48.1419 -48.1184 -48.1173 -48.1171 -48.1171 -48.1168 -48.1160
   -48.1158 -48.1155 -48.1000 -48.0997 -48.0987 -48.0984 -39.2298 -39.2290
   -39.1408 -39.1400 -39.0278 -39.0273 -13.5010 -13.4987 -13.4787 -13.4760
    -6.1940  -6.1911  -5.5604  -5.5574  -4.4130  -4.4109  -4.3784  -4.3763
    -4.1696  -4.1672  -3.2809  -3.2800  -0.0368  -0.0333   0.0125   0.0141
     1.8424   1.8458   2.0789   2.0871   3.9667   4.0032   5.3936

          k = 0.2500 0.5052 0.0000 ( 38019 PWs)   bands (ev):

   -74.8711 -74.8707 -48.1458 -48.1449 -48.1445 -48.1436 -48.1435 -48.1433
   -48.1423 -48.1419 -48.1183 -48.1176 -48.1172 -48.1170 -48.1168 -48.1163
   -48.1159 -48.1154 -48.0998 -48.0995 -48.0985 -48.0983 -39.2321 -39.2312
   -39.1606 -39.1598 -39.0241 -39.0237 -13.4018 -13.3993 -13.2643 -13.2618
    -6.3653  -6.3624  -5.5902  -5.5873  -4.8068  -4.8040  -4.3746  -4.3730
    -4.0447  -4.0430  -3.5439  -3.5428  -0.1480  -0.1467   0.4476   0.4486
     1.5640   1.5652   2.4149   2.4245   3.8644   3.8709   5.1184

          k = 0.2500 0.5774 0.0000 ( 38023 PWs)   bands (ev):

   -74.8708 -74.8705 -48.1457 -48.1447 -48.1444 -48.1435 -48.1434 -48.1433
   -48.1423 -48.1420 -48.1182 -48.1178 -48.1173 -48.1169 -48.1168 -48.1165
   -48.1160 -48.1154 -48.0997 -48.0995 -48.0985 -48.0982 -39.2316 -39.2308
   -39.1688 -39.1679 -39.0229 -39.0224 -13.3666 -13.3639 -13.1843 -13.1819
    -6.4233  -6.4204  -5.5974  -5.5946  -4.9750  -4.9721  -4.2098  -4.2084
    -4.2063  -4.2047  -3.5613  -3.5600  -0.2088  -0.2079   0.8055   0.8058
     1.2274   1.2291   2.7031   2.7070   3.6170   3.6236   5.0389

          k = 0.3125 0.5413 0.0000 ( 38095 PWs)   bands (ev):

   -74.8707 -74.8703 -48.1453 -48.1443 -48.1440 -48.1439 -48.1437 -48.1430
   -48.1426 -48.1423 -48.1181 -48.1177 -48.1176 -48.1168 -48.1167 -48.1165
   -48.1162 -48.1154 -48.0997 -48.0995 -48.0985 -48.0982 -39.2168 -39.2159
   -39.1880 -39.1871 -39.0222 -39.0218 -13.2793 -13.2768 -13.2172 -13.2147
    -6.1129  -6.1102  -5.6270  -5.6241  -5.4131  -5.4102  -4.2196  -4.2182
    -3.9240  -3.9224  -3.8930  -3.8918   0.2314   0.2329   0.4115   0.4121
     1.0793   1.0810   2.9056   2.9139   3.5399   3.5439   4.8434

     the Fermi energy is    -0.0066 ev

!    total energy              =   -3113.95918324 Ry
     total all-electron energy =    -83998.683747 Ry
     estimated scf accuracy    <       0.00000006 Ry
     smearing contrib. (-TS)   =       0.00045655 Ry
     internal energy E=F+TS    =   -3113.95963979 Ry

     The total energy is F=E-TS. E is the sum of the following terms:
     one-electron contribution =  -21491.84452128 Ry
     hartree contribution      =   10733.07479930 Ry
     xc contribution           =    -193.57544748 Ry
     ewald contribution        =    9599.69967337 Ry
     one-center paw contrib.   =   -1761.31414371 Ry

     convergence has been achieved in  30 iterations

     Writing all to output data dir ./tmp/cleave_020/wse2_cleave_020.save/ :
     XML data file, charge density, pseudopotentials, collected wavefunctions

     init_run     :     43.19s CPU     48.11s WALL (       1 calls)
     electrons    :   1974.41s CPU   2333.95s WALL (       1 calls)

     Called by init_run:
     wfcinit      :     26.81s CPU     29.74s WALL (       1 calls)
     potinit      :     14.65s CPU     16.03s WALL (       1 calls)
     hinit0       :      0.22s CPU      0.24s WALL (       1 calls)

     Called by electrons:
     c_bands      :   1601.13s CPU   1882.81s WALL (      31 calls)
     sum_band     :    243.33s CPU    293.82s WALL (      31 calls)
     v_of_rho     :     62.63s CPU     72.90s WALL (      31 calls)
     newd         :     24.16s CPU     34.37s WALL (      31 calls)
     PAW_pot      :      5.14s CPU      6.03s WALL (      31 calls)
     mix_rho      :     52.14s CPU     59.57s WALL (      31 calls)
     vdW_kernel   :     12.41s CPU     13.65s WALL (       1 calls)

     Called by c_bands:
     init_us_2    :      5.35s CPU      6.45s WALL (    1890 calls)
     cegterg      :   1560.87s CPU   1836.53s WALL (     930 calls)

     Called by *egterg:
     cdiaghg      :     21.65s CPU     26.24s WALL (    3252 calls)
     h_psi        :    814.54s CPU    965.73s WALL (    3312 calls)
     s_psi        :    106.84s CPU    126.13s WALL (    3312 calls)
     g_psi        :      1.30s CPU      1.57s WALL (    2352 calls)

     Called by h_psi:
     h_psi:calbec :    197.36s CPU    230.73s WALL (    3312 calls)
     vloc_psi     :    490.33s CPU    580.61s WALL (    3312 calls)
                                        0.00s GPU  (    3312 calls)
     add_vuspsi   :    125.36s CPU    152.68s WALL (    3312 calls)

     General routines
     calbec       :    284.67s CPU    333.87s WALL (    4242 calls)
     fft          :     42.26s CPU     48.64s WALL (    1952 calls)
     ffts         :     18.13s CPU     20.39s WALL (    3629 calls)
     fftw         :    582.09s CPU    691.47s WALL (  274970 calls)
     interpolate  :      0.76s CPU      0.93s WALL (      31 calls)

     Parallel routines

     PWSCF        :  33m47.46s CPU  39m53.77s WALL


   This run was terminated on:  18:25: 0  18Jun2026            

=------------------------------------------------------------------------------=
   JOB DONE.
=------------------------------------------------------------------------------=
Note: The following floating-point exceptions are signalling: IEEE_UNDERFLOW_FLAG IEEE_DENORMAL
Note: The following floating-point exceptions are signalling: IEEE_UNDERFLOW_FLAG IEEE_DENORMAL
Note: The following floating-point exceptions are signalling: IEEE_UNDERFLOW_FLAG IEEE_DENORMAL
Note: The following floating-point exceptions are signalling: IEEE_UNDERFLOW_FLAG IEEE_DENORMAL
Note: The following floating-point exceptions are signalling: IEEE_UNDERFLOW_FLAG IEEE_DENORMAL
Note: The following floating-point exceptions are signalling: IEEE_UNDERFLOW_FLAG IEEE_DENORMAL
Note: The following floating-point exceptions are signalling: IEEE_UNDERFLOW_FLAG IEEE_DENORMAL
Note: The following floating-point exceptions are signalling: IEEE_UNDERFLOW_FLAG IEEE_DENORMAL
Note: The following floating-point exceptions are signalling: IEEE_UNDERFLOW_FLAG IEEE_DENORMAL
Note: The following floating-point exceptions are signalling: IEEE_UNDERFLOW_FLAG IEEE_DENORMAL
Note: The following floating-point exceptions are signalling: IEEE_UNDERFLOW_FLAG IEEE_DENORMAL
Note: The following floating-point exceptions are signalling: IEEE_UNDERFLOW_FLAG IEEE_DENORMAL
