
     Program PWSCF v.7.5 starts on 18Jun2026 at 14:17:51 

     This program is part of the open-source Quantum ESPRESSO suite
     for quantum simulation of materials; please cite
         "P. Giannozzi et al., J. Phys.:Condens. Matter 21 395502 (2009);
         "P. Giannozzi et al., J. Phys.:Condens. Matter 29 465901 (2017);
         "P. Giannozzi et al., J. Chem. Phys. 152 154105 (2020);
          URL http://www.quantum-espresso.org", 
     in publications or presentations arising from this work. More details at
     http://www.quantum-espresso.org/quote

     Parallel version (MPI), running on    12 processors

     MPI processes distributed on     1 nodes
     32183 MiB available memory on the printing compute node when the environment starts

     Waiting for input...
     Reading input from standard input

     Current dimensions of program PWSCF are:
     Max number of different atomic species (ntypx) = 10
     Max number of k-points (npk) =  40000
     Max angular momentum in pseudopotentials (lmaxx) =  4
     file W.pbe-spn-kjpaw_psl.1.0.0.UPF: wavefunction(s)  6S 5P 5D renormalized
     file Se.pbe-dn-kjpaw_psl.1.0.0.UPF: wavefunction(s)  4S 4P 3D renormalized

     IMPORTANT: XC functional enforced from input :
     Exchange-correlation= VDW-DF2-B86R
                           (   1   4  26   0   2   0   0)
     Any further DFT definition will be discarded
     Please, verify this is what you really want


     R & G space division:  proc/nbgrp/npool/nimage =      12
     Subspace diagonalization in iterative solution of the eigenvalue problem:
     a serial algorithm will be used


     Parallelization info
     --------------------
     sticks:   dense  smooth     PW     G-vecs:    dense   smooth      PW
     Min         139      70     20                71489    25322    3895
     Max         140      71     22                71558    25395    3945
     Sum        1675     847    253               858263   304337   46813

     Using Slab Decomposition



     bravais-lattice index     =            4
     lattice parameter (alat)  =       6.1983  a.u.
     unit-cell volume          =    3143.7277 (a.u.)^3
     number of atoms/cell      =            6
     number of atomic types    =            2
     number of electrons       =        92.00
     number of Kohn-Sham states=           55
     kinetic-energy cutoff     =      80.0000  Ry
     charge density cutoff     =     640.0000  Ry
     scf convergence threshold =      1.0E-07
     mixing beta               =       0.1000
     number of iterations used =           12  local-TF  mixing
     Exchange-correlation= VDW-DF2-B86R
                           (   1   4  26   0   2   0   0)

     celldm(1)=   6.198302  celldm(2)=   0.000000  celldm(3)=  15.243902
     celldm(4)=   0.000000  celldm(5)=   0.000000  celldm(6)=   0.000000

     crystal axes: (cart. coord. in units of alat)
               a(1) = (   1.000000   0.000000   0.000000 )  
               a(2) = (  -0.500000   0.866025   0.000000 )  
               a(3) = (   0.000000   0.000000  15.243902 )  

     reciprocal axes: (cart. coord. in units 2 pi/alat)
               b(1) = (  1.000000  0.577350 -0.000000 )  
               b(2) = (  0.000000  1.154701  0.000000 )  
               b(3) = (  0.000000 -0.000000  0.065600 )  


     PseudoPot. # 1 for W  read from file:
     ./pseudo/W.pbe-spn-kjpaw_psl.1.0.0.UPF
     MD5 check sum: 03c3df5b60893f488392c7401945500a
     Pseudo is Projector augmented-wave + core cor, Zval = 14.0
     Generated using &quot;atomic&quot; code by A. Dal Corso  v.6.2.2
     Shape of augmentation charge: PSQ
     Using radial grid of 1273 points,  6 beta functions with: 
                l(1) =   0
                l(2) =   0
                l(3) =   1
                l(4) =   1
                l(5) =   2
                l(6) =   2
     Q(r) pseudized with 0 coefficients 


     PseudoPot. # 2 for Se read from file:
     ./pseudo/Se.pbe-dn-kjpaw_psl.1.0.0.UPF
     MD5 check sum: ac240dd2bae32a30e0bf3a38df9c8785
     Pseudo is Projector augmented-wave + core cor, Zval = 16.0
     Generated using &quot;atomic&quot; code by A. Dal Corso  v.6.3
     Shape of augmentation charge: PSQ
     Using radial grid of 1211 points,  6 beta functions with: 
                l(1) =   0
                l(2) =   0
                l(3) =   1
                l(4) =   1
                l(5) =   2
                l(6) =   2
     Q(r) pseudized with 0 coefficients 


     atomic species   valence    mass     pseudopotential
     W                14.00   183.84000     W ( 1.00)
     Se               16.00    78.96000     Se( 1.00)

      6 Sym. Ops. (no inversion) found



   Cartesian axes

     site n.     atom                  positions (alat units)
         1        Se     tau(   1) = (  -0.0000005   0.5773506   6.1149390  )
         2        W      tau(   2) = (   0.0000000   0.0000000   6.6383232  )
         3        Se     tau(   3) = (   0.5000005   0.2886748   7.1618445  )
         4        Se     tau(   4) = (  -0.0000005   0.5773506   8.5694360  )
         5        W      tau(   5) = (   0.5000005   0.2886748   9.0926829  )
         6        Se     tau(   6) = (   0.0000000   0.0000000   9.6167683  )

     number of k points=    30  Methfessel-Paxton smearing, width (Ry)=  0.0200
                       cart. coord. in units 2pi/alat
        k(    1) = (   0.0000000   0.0000000   0.0000000), wk =   0.0078125
        k(    2) = (   0.0000000   0.0721688   0.0000000), wk =   0.0468750
        k(    3) = (   0.0000000   0.1443376   0.0000000), wk =   0.0468750
        k(    4) = (   0.0000000   0.2165064   0.0000000), wk =   0.0468750
        k(    5) = (   0.0000000   0.2886751   0.0000000), wk =   0.0468750
        k(    6) = (   0.0000000   0.3608439   0.0000000), wk =   0.0468750
        k(    7) = (   0.0000000   0.4330127   0.0000000), wk =   0.0468750
        k(    8) = (   0.0000000   0.5051815   0.0000000), wk =   0.0468750
        k(    9) = (   0.0000000  -0.5773503   0.0000000), wk =   0.0234375
        k(   10) = (   0.0625000   0.1082532   0.0000000), wk =   0.0468750
        k(   11) = (   0.0625000   0.1804220   0.0000000), wk =   0.0937500
        k(   12) = (   0.0625000   0.2525907   0.0000000), wk =   0.0937500
        k(   13) = (   0.0625000   0.3247595   0.0000000), wk =   0.0937500
        k(   14) = (   0.0625000   0.3969283   0.0000000), wk =   0.0937500
        k(   15) = (   0.0625000   0.4690971   0.0000000), wk =   0.0937500
        k(   16) = (   0.0625000   0.5412659   0.0000000), wk =   0.0937500
        k(   17) = (   0.1250000   0.2165064   0.0000000), wk =   0.0468750
        k(   18) = (   0.1250000   0.2886751   0.0000000), wk =   0.0937500
        k(   19) = (   0.1250000   0.3608439   0.0000000), wk =   0.0937500
        k(   20) = (   0.1250000   0.4330127   0.0000000), wk =   0.0937500
        k(   21) = (   0.1250000   0.5051815   0.0000000), wk =   0.0937500
        k(   22) = (   0.1250000   0.5773503   0.0000000), wk =   0.0468750
        k(   23) = (   0.1875000   0.3247595   0.0000000), wk =   0.0468750
        k(   24) = (   0.1875000   0.3969283   0.0000000), wk =   0.0937500
        k(   25) = (   0.1875000   0.4690971   0.0000000), wk =   0.0937500
        k(   26) = (   0.1875000   0.5412659   0.0000000), wk =   0.0937500
        k(   27) = (   0.2500000   0.4330127   0.0000000), wk =   0.0468750
        k(   28) = (   0.2500000   0.5051815   0.0000000), wk =   0.0937500
        k(   29) = (   0.2500000   0.5773503   0.0000000), wk =   0.0468750
        k(   30) = (   0.3125000   0.5412659   0.0000000), wk =   0.0468750

     Dense  grid:   858263 G-vectors     FFT dimensions: (  50,  50, 768)

     Smooth grid:   304337 G-vectors     FFT dimensions: (  36,  36, 540)

     Estimated max dynamical RAM per process >     350.14 MB

     Estimated total dynamical RAM >       4.10 GB

     Initial potential from superposition of free atoms

     starting charge      91.9986, renormalised to      92.0000

     negative rho (up, down):  1.665E-04 0.000E+00


     %%%%%%%%%%%%%%%%%%%%%%%%%%%%%%%%%%%%%%%%%%%%%%%%%%%%%%%%%%%%%%%%%%%%%%%%
     %                                                                      %
     % You are using vdW-DF, which was implemented by the Thonhauser group. %
     % Please cite the following two papers that made this development      %
     % possible and the two reviews that describe the various versions:     %
     %                                                                      %
     %   T. Thonhauser et al., PRL 115, 136402 (2015).                      %
     %   T. Thonhauser et al., PRB 76, 125112 (2007).                       %
     %   K. Berland et al., Rep. Prog. Phys. 78, 066501 (2015).             %
     %   D.C. Langreth et al., J. Phys.: Condens. Matter 21, 084203 (2009). %
     %                                                                      %
     % If you are calculating stress with vdW-DF, please also cite:         %
     %                                                                      %
     %   R. Sabatini et al., J. Phys.: Condens. Matter 24, 424209 (2012).   %
     %                                                                      %
     %%%%%%%%%%%%%%%%%%%%%%%%%%%%%%%%%%%%%%%%%%%%%%%%%%%%%%%%%%%%%%%%%%%%%%%%

     %%%%%%%%%%%%%%%%%%%%%%%%%%%%%%%%%%%%%%%%%%%%%%%%%%%%%%%%%%%%%%%%%%%%%%%%
     %                                                                      %
     %  vdW-DF NEWS:                                                        %
     %                                                                      %
     %  * vdW-DF3 is now available. DOI: 10.1021/acs.jctc.0c00471           %
     %    use with input_dft = 'vdW-DF3-opt1' or 'vdW-DF3-opt2'             %
     %                                                                      %
     %  * Unscreened and range-separated hybrid vdW-DF-cx functionals       %
     %    DOI: 10.1063/1.4986522 and 10.1088/1361-648X/ac2ad2               %
     %    use with input_dft = 'vdW-DF-cx0'    and 'vdW-DF-ahcx'            %
     %  * Unscreened and range-separated hybrid vdW-DF2-b86r functionals    %
     %    DOI: 10.1063/1.4986522 and DOI: 10.1103/PhysRevX.12.041003        %
     %    use with input_dft = 'vdW-DF2-br0' and 'vdW-DF2-ahbr'             %
     %                                                                      %
     %%%%%%%%%%%%%%%%%%%%%%%%%%%%%%%%%%%%%%%%%%%%%%%%%%%%%%%%%%%%%%%%%%%%%%%%


     Starting wfcs are   62 randomized atomic wfcs
     Checking if some PAW data can be deallocated... 

     total cpu time spent up to now is       28.9 secs

     per-process dynamical memory:   142.9 Mb

     Self-consistent Calculation

     iteration #  1     ecut=    80.00 Ry     beta= 0.10
     Davidson diagonalization with overlap
     ethr =  1.00E-02,  avg # of iterations =  3.9

     Threshold (ethr) on eigenvalues was too large:
     Diagonalizing with lowered threshold

     Davidson diagonalization with overlap
     ethr =  1.07E-04,  avg # of iterations =  5.7

     negative rho (up, down):  1.046E-04 0.000E+00

     total cpu time spent up to now is      131.7 secs

     total energy              =   -3113.99841584 Ry
     estimated scf accuracy    <       0.12692814 Ry

     iteration #  2     ecut=    80.00 Ry     beta= 0.10
     Davidson diagonalization with overlap
     ethr =  1.38E-04,  avg # of iterations =  1.0

     negative rho (up, down):  1.294E-04 0.000E+00

     total cpu time spent up to now is      170.3 secs

     total energy              =   -3113.95349792 Ry
     estimated scf accuracy    <       0.11552243 Ry

     iteration #  3     ecut=    80.00 Ry     beta= 0.10
     Davidson diagonalization with overlap
     ethr =  1.26E-04,  avg # of iterations =  3.8

     negative rho (up, down):  2.511E-05 0.000E+00

     total cpu time spent up to now is      221.4 secs

     total energy              =   -3113.96835982 Ry
     estimated scf accuracy    <       0.02126456 Ry

     iteration #  4     ecut=    80.00 Ry     beta= 0.10
     Davidson diagonalization with overlap
     ethr =  2.31E-05,  avg # of iterations =  2.5

     negative rho (up, down):  8.409E-07 0.000E+00

     total cpu time spent up to now is      264.6 secs

     total energy              =   -3113.96453672 Ry
     estimated scf accuracy    <       0.01851503 Ry

     iteration #  5     ecut=    80.00 Ry     beta= 0.10
     Davidson diagonalization with overlap
     c_bands:  1 eigenvalues not converged
     ethr =  2.01E-05,  avg # of iterations =  4.0

     negative rho (up, down):  6.512E-07 0.000E+00

     total cpu time spent up to now is      313.3 secs

     total energy              =   -3113.96612155 Ry
     estimated scf accuracy    <       0.00255008 Ry

     iteration #  6     ecut=    80.00 Ry     beta= 0.10
     Davidson diagonalization with overlap
     ethr =  2.77E-06,  avg # of iterations =  9.2

     negative rho (up, down):  1.760E-07 0.000E+00

     total cpu time spent up to now is      362.0 secs

     total energy              =   -3113.96536845 Ry
     estimated scf accuracy    <       0.00233651 Ry

     iteration #  7     ecut=    80.00 Ry     beta= 0.10
     Davidson diagonalization with overlap
     ethr =  2.54E-06,  avg # of iterations =  3.8

     negative rho (up, down):  1.451E-07 0.000E+00

     total cpu time spent up to now is      412.1 secs

     total energy              =   -3113.96530478 Ry
     estimated scf accuracy    <       0.00272456 Ry

     iteration #  8     ecut=    80.00 Ry     beta= 0.10
     Davidson diagonalization with overlap
     ethr =  2.54E-06,  avg # of iterations =  2.2

     negative rho (up, down):  6.117E-08 0.000E+00

     total cpu time spent up to now is      460.1 secs

     total energy              =   -3113.96534737 Ry
     estimated scf accuracy    <       0.00093345 Ry

     iteration #  9     ecut=    80.00 Ry     beta= 0.10
     Davidson diagonalization with overlap
     ethr =  1.01E-06,  avg # of iterations =  5.1

     negative rho (up, down):  1.241E-07 0.000E+00

     total cpu time spent up to now is      507.2 secs

     total energy              =   -3113.96529169 Ry
     estimated scf accuracy    <       0.00077991 Ry

     iteration # 10     ecut=    80.00 Ry     beta= 0.10
     Davidson diagonalization with overlap
     ethr =  8.48E-07,  avg # of iterations =  1.8

     negative rho (up, down):  7.749E-05 0.000E+00

     total cpu time spent up to now is      550.4 secs

     total energy              =   -3113.96525085 Ry
     estimated scf accuracy    <       0.00056374 Ry

     iteration # 11     ecut=    80.00 Ry     beta= 0.10
     Davidson diagonalization with overlap
     ethr =  6.13E-07,  avg # of iterations =  6.0

     negative rho (up, down):  3.818E-04 0.000E+00

     total cpu time spent up to now is      599.7 secs

     total energy              =   -3113.96525455 Ry
     estimated scf accuracy    <       0.00040087 Ry

     iteration # 12     ecut=    80.00 Ry     beta= 0.10
     Davidson diagonalization with overlap
     ethr =  4.36E-07,  avg # of iterations =  1.4

     negative rho (up, down):  1.296E-03 0.000E+00

     total cpu time spent up to now is      643.3 secs

     total energy              =   -3113.96524119 Ry
     estimated scf accuracy    <       0.00038012 Ry

     iteration # 13     ecut=    80.00 Ry     beta= 0.10
     Davidson diagonalization with overlap
     ethr =  4.13E-07,  avg # of iterations =  4.1

     negative rho (up, down):  3.442E-03 0.000E+00

     total cpu time spent up to now is      689.5 secs

     total energy              =   -3113.96522928 Ry
     estimated scf accuracy    <       0.00021099 Ry

     iteration # 14     ecut=    80.00 Ry     beta= 0.10
     Davidson diagonalization with overlap
     ethr =  2.29E-07,  avg # of iterations =  4.6

     negative rho (up, down):  8.247E-04 0.000E+00

     total cpu time spent up to now is      735.4 secs

     total energy              =   -3113.96523363 Ry
     estimated scf accuracy    <       0.00019028 Ry

     iteration # 15     ecut=    80.00 Ry     beta= 0.10
     Davidson diagonalization with overlap
     ethr =  2.07E-07,  avg # of iterations =  4.9

     negative rho (up, down):  1.027E-03 0.000E+00

     total cpu time spent up to now is      791.9 secs

     total energy              =   -3113.96525703 Ry
     estimated scf accuracy    <       0.00019503 Ry

     iteration # 16     ecut=    80.00 Ry     beta= 0.10
     Davidson diagonalization with overlap
     ethr =  2.07E-07,  avg # of iterations =  1.4

     negative rho (up, down):  9.941E-04 0.000E+00

     total cpu time spent up to now is      833.8 secs

     total energy              =   -3113.96522208 Ry
     estimated scf accuracy    <       0.00020498 Ry

     iteration # 17     ecut=    80.00 Ry     beta= 0.10
     Davidson diagonalization with overlap
     ethr =  2.07E-07,  avg # of iterations =  1.4

     negative rho (up, down):  3.772E-03 0.000E+00

     total cpu time spent up to now is      875.7 secs

     total energy              =   -3113.96518940 Ry
     estimated scf accuracy    <       0.00011831 Ry

     iteration # 18     ecut=    80.00 Ry     beta= 0.10
     Davidson diagonalization with overlap
     ethr =  1.29E-07,  avg # of iterations =  6.6

     negative rho (up, down):  3.465E-03 0.000E+00

     total cpu time spent up to now is      925.1 secs

     total energy              =   -3113.96521210 Ry
     estimated scf accuracy    <       0.00011527 Ry

     iteration # 19     ecut=    80.00 Ry     beta= 0.10
     Davidson diagonalization with overlap
     ethr =  1.25E-07,  avg # of iterations =  3.2

     negative rho (up, down):  3.192E-03 0.000E+00

     total cpu time spent up to now is      974.1 secs

     total energy              =   -3113.96514329 Ry
     estimated scf accuracy    <       0.00008335 Ry

     iteration # 20     ecut=    80.00 Ry     beta= 0.10
     Davidson diagonalization with overlap
     ethr =  9.06E-08,  avg # of iterations =  5.4

     negative rho (up, down):  3.575E-03 0.000E+00

     total cpu time spent up to now is     1026.6 secs

     total energy              =   -3113.96512937 Ry
     estimated scf accuracy    <       0.00003525 Ry

     iteration # 21     ecut=    80.00 Ry     beta= 0.10
     Davidson diagonalization with overlap
     ethr =  3.83E-08,  avg # of iterations =  3.8

     negative rho (up, down):  3.350E-03 0.000E+00

     total cpu time spent up to now is     1075.1 secs

     total energy              =   -3113.96517566 Ry
     estimated scf accuracy    <       0.00003307 Ry

     iteration # 22     ecut=    80.00 Ry     beta= 0.10
     Davidson diagonalization with overlap
     ethr =  3.59E-08,  avg # of iterations =  3.7

     negative rho (up, down):  2.538E-03 0.000E+00

     total cpu time spent up to now is     1123.2 secs

     total energy              =   -3113.96519286 Ry
     estimated scf accuracy    <       0.00002576 Ry

     iteration # 23     ecut=    80.00 Ry     beta= 0.10
     Davidson diagonalization with overlap
     ethr =  2.80E-08,  avg # of iterations =  5.8

     negative rho (up, down):  2.481E-03 0.000E+00

     total cpu time spent up to now is     1178.2 secs

     total energy              =   -3113.96519719 Ry
     estimated scf accuracy    <       0.00001187 Ry

     iteration # 24     ecut=    80.00 Ry     beta= 0.10
     Davidson diagonalization with overlap
     ethr =  1.29E-08,  avg # of iterations =  2.0

     negative rho (up, down):  1.462E-03 0.000E+00

     total cpu time spent up to now is     1223.4 secs

     total energy              =   -3113.96518546 Ry
     estimated scf accuracy    <       0.00001019 Ry

     iteration # 25     ecut=    80.00 Ry     beta= 0.10
     Davidson diagonalization with overlap
     ethr =  1.11E-08,  avg # of iterations =  4.1

     negative rho (up, down):  1.055E-03 0.000E+00

     total cpu time spent up to now is     1281.1 secs

     total energy              =   -3113.96518433 Ry
     estimated scf accuracy    <       0.00000731 Ry

     iteration # 26     ecut=    80.00 Ry     beta= 0.10
     Davidson diagonalization with overlap
     ethr =  7.95E-09,  avg # of iterations =  2.2

     negative rho (up, down):  8.255E-04 0.000E+00

     total cpu time spent up to now is     1336.8 secs

     total energy              =   -3113.96518669 Ry
     estimated scf accuracy    <       0.00000510 Ry

     iteration # 27     ecut=    80.00 Ry     beta= 0.10
     Davidson diagonalization with overlap
     ethr =  5.54E-09,  avg # of iterations =  1.6

     negative rho (up, down):  6.960E-04 0.000E+00

     total cpu time spent up to now is     1381.8 secs

     total energy              =   -3113.96518706 Ry
     estimated scf accuracy    <       0.00000184 Ry

     iteration # 28     ecut=    80.00 Ry     beta= 0.10
     Davidson diagonalization with overlap
     ethr =  2.00E-09,  avg # of iterations =  2.5

     negative rho (up, down):  2.895E-04 0.000E+00

     total cpu time spent up to now is     1427.8 secs

     total energy              =   -3113.96518959 Ry
     estimated scf accuracy    <       0.00000129 Ry

     iteration # 29     ecut=    80.00 Ry     beta= 0.10
     Davidson diagonalization with overlap
     ethr =  1.40E-09,  avg # of iterations =  4.7

     negative rho (up, down):  2.292E-04 0.000E+00

     total cpu time spent up to now is     1480.3 secs

     total energy              =   -3113.96519022 Ry
     estimated scf accuracy    <       0.00000079 Ry

     iteration # 30     ecut=    80.00 Ry     beta= 0.10
     Davidson diagonalization with overlap
     ethr =  8.55E-10,  avg # of iterations =  2.1

     negative rho (up, down):  1.638E-04 0.000E+00

     total cpu time spent up to now is     1532.1 secs

     End of self-consistent calculation

          k = 0.0000 0.0000 0.0000 ( 38015 PWs)   bands (ev):

   -74.8858 -74.8854 -48.1543 -48.1543 -48.1526 -48.1526 -48.1524 -48.1524
   -48.1502 -48.1502 -48.1241 -48.1241 -48.1224 -48.1224 -48.1216 -48.1216
   -48.1195 -48.1195 -48.1101 -48.1085 -48.1074 -48.1053 -39.0788 -39.0784
   -39.0438 -39.0438 -39.0428 -39.0428 -15.5172 -15.5099 -14.4490 -14.4378
    -7.0127  -6.9436  -3.4706  -3.3566  -3.3566  -3.3516  -3.3515  -3.2088
    -1.4142  -1.2232  -0.6928  -0.6927  -0.6903  -0.6903   0.2041   0.2041
     0.2078   0.2078   3.3497   3.4055   3.4055   3.4109   3.4109

          k = 0.0000 0.0722 0.0000 ( 37975 PWs)   bands (ev):

   -74.8854 -74.8850 -48.1543 -48.1541 -48.1525 -48.1524 -48.1524 -48.1522
   -48.1502 -48.1500 -48.1241 -48.1241 -48.1225 -48.1224 -48.1216 -48.1216
   -48.1195 -48.1195 -48.1100 -48.1084 -48.1073 -48.1053 -39.0770 -39.0766
   -39.0528 -39.0518 -39.0459 -39.0449 -15.4561 -15.4489 -14.4208 -14.4098
    -6.9303  -6.8612  -3.8993  -3.7975  -3.3219  -3.3169  -3.0007  -2.8468
    -1.4644  -1.3311  -0.9923  -0.9562  -0.9216  -0.9189   0.1756   0.2150
     0.4053   0.4087   3.0567   3.0830   3.3631   3.3698   3.5078

          k = 0.0000 0.1443 0.0000 ( 37895 PWs)   bands (ev):

   -74.8843 -74.8838 -48.1543 -48.1536 -48.1525 -48.1524 -48.1518 -48.1517
   -48.1502 -48.1495 -48.1243 -48.1241 -48.1227 -48.1225 -48.1218 -48.1216
   -48.1197 -48.1195 -48.1098 -48.1081 -48.1070 -48.1050 -39.0787 -39.0777
   -39.0718 -39.0713 -39.0519 -39.0509 -15.2771 -15.2698 -14.3386 -14.3281
    -6.6905  -6.6215  -4.3896  -4.3111  -3.2389  -3.2338  -2.7737  -2.6354
    -2.0513  -2.0258  -1.3052  -1.3019  -1.2532  -1.1273   0.1511   0.2457
     0.7088   0.7125   2.4522   2.5544   3.2854   3.2944   3.8300

          k = 0.0000 0.2165 0.0000 ( 37851 PWs)   bands (ev):

   -74.8826 -74.8821 -48.1542 -48.1528 -48.1525 -48.1524 -48.1510 -48.1509
   -48.1502 -48.1487 -48.1246 -48.1243 -48.1230 -48.1226 -48.1221 -48.1217
   -48.1200 -48.1196 -48.1094 -48.1078 -48.1066 -48.1046 -39.1170 -39.1159
   -39.0641 -39.0637 -39.0610 -39.0599 -14.9936 -14.9865 -14.2086 -14.1990
    -6.3222  -6.2547  -4.8316  -4.7712  -3.3048  -3.2929  -3.1758  -3.1708
    -2.5116  -2.3880  -1.5979  -1.5942  -1.3721  -1.2901   0.1680   0.3019
     0.9108   0.9154   2.0968   2.2971   3.2577   3.2689   4.2252

          k = 0.0000 0.2887 0.0000 ( 37919 PWs)   bands (ev):

   -74.8806 -74.8801 -48.1543 -48.1525 -48.1524 -48.1519 -48.1502 -48.1502
   -48.1501 -48.1479 -48.1250 -48.1244 -48.1233 -48.1227 -48.1224 -48.1218
   -48.1203 -48.1197 -48.1090 -48.1073 -48.1062 -48.1042 -39.1619 -39.1608
   -39.0716 -39.0705 -39.0550 -39.0546 -14.6326 -14.6258 -14.0397 -14.0314
    -5.9265  -5.8686  -5.1417  -5.0927  -4.3608  -4.3520  -3.2213  -3.2165
    -2.6675  -2.5739  -1.6957  -1.6915  -1.6586  -1.6140   0.3138   0.4643
     1.0152   1.0201   2.1934   2.4854   3.3015   3.3153   4.6917

          k = 0.0000 0.3608 0.0000 ( 37933 PWs)   bands (ev):

   -74.8786 -74.8781 -48.1543 -48.1526 -48.1524 -48.1511 -48.1502 -48.1493
   -48.1492 -48.1470 -48.1254 -48.1245 -48.1237 -48.1228 -48.1227 -48.1219
   -48.1206 -48.1198 -48.1085 -48.1069 -48.1058 -48.1038 -39.2064 -39.2054
   -39.0822 -39.0811 -39.0458 -39.0454 -14.2477 -14.2415 -13.8340 -13.8269
    -5.9176  -5.8974  -5.3456  -5.3224  -4.9428  -4.8894  -3.3704  -3.3657
    -2.9955  -2.9374  -1.9601  -1.9220  -1.6355  -1.6305   0.6571   0.7956
     1.1087   1.1129   2.6091   2.9506   3.3738   3.3906   5.0098

          k = 0.0000 0.4330 0.0000 ( 37998 PWs)   bands (ev):

   -74.8769 -74.8764 -48.1544 -48.1526 -48.1524 -48.1503 -48.1502 -48.1486
   -48.1485 -48.1463 -48.1257 -48.1246 -48.1240 -48.1229 -48.1229 -48.1220
   -48.1208 -48.1199 -48.1082 -48.1065 -48.1054 -48.1034 -39.2439 -39.2428
   -39.0911 -39.0901 -39.0381 -39.0377 -13.9426 -13.9373 -13.5703 -13.5644
    -6.5241  -6.5183  -5.6184  -5.5886  -4.7114  -4.6759  -3.5350  -3.5303
    -3.2860  -3.2330  -2.1437  -2.1129  -1.5405  -1.5345   1.1367   1.2457
     1.2482   1.2511   3.1228   3.4075   3.4343   3.4538   4.5264

          k = 0.0000 0.5052 0.0000 ( 38048 PWs)   bands (ev):

   -74.8757 -74.8753 -48.1544 -48.1527 -48.1524 -48.1502 -48.1498 -48.1481
   -48.1480 -48.1458 -48.1259 -48.1247 -48.1243 -48.1231 -48.1230 -48.1220
   -48.1210 -48.1199 -48.1079 -48.1063 -48.1052 -48.1031 -39.2688 -39.2677
   -39.0971 -39.0961 -39.0329 -39.0325 -13.7805 -13.7762 -13.3012 -13.2967
    -7.0881  -7.0825  -5.6315  -5.6104  -4.7787  -4.7589  -3.6517  -3.6471
    -3.2191  -3.1662  -2.2567  -2.2360  -1.4796  -1.4727   1.3980   1.4002
     1.6277   1.6978   3.3787   3.4697   3.4911   3.4976   4.3645

          k = 0.0000-0.5774 0.0000 ( 38024 PWs)   bands (ev):

   -74.8753 -74.8749 -48.1545 -48.1527 -48.1524 -48.1502 -48.1497 -48.1479
   -48.1478 -48.1456 -48.1260 -48.1247 -48.1243 -48.1231 -48.1230 -48.1220
   -48.1211 -48.1199 -48.1078 -48.1062 -48.1051 -48.1031 -39.2775 -39.2764
   -39.0992 -39.0982 -39.0310 -39.0306 -13.7305 -13.7266 -13.1864 -13.1827
    -7.3007  -7.2956  -5.5906  -5.5809  -4.9011  -4.8805  -3.6931  -3.6884
    -3.0981  -3.0554  -2.3079  -2.2908  -1.4607  -1.4535   1.4646   1.4668
     1.8691   1.9024   3.4098   3.4809   3.5030   3.5076   4.1161

          k = 0.0625 0.1083 0.0000 ( 37895 PWs)   bands (ev):

   -74.8847 -74.8842 -48.1542 -48.1538 -48.1525 -48.1524 -48.1520 -48.1519
   -48.1502 -48.1497 -48.1243 -48.1241 -48.1226 -48.1225 -48.1217 -48.1216
   -48.1196 -48.1195 -48.1099 -48.1082 -48.1071 -48.1051 -39.0736 -39.0731
   -39.0700 -39.0690 -39.0502 -39.0492 -15.3360 -15.3288 -14.3656 -14.3550
    -6.7688  -6.6997  -4.2586  -4.1740  -3.2708  -3.2657  -2.8020  -2.6490
    -1.7914  -1.7679  -1.3184  -1.3087  -1.1597  -1.0367   0.2285   0.3045
     0.5576   0.5607   2.6838   2.7589   3.2279   3.2294   3.7412

          k = 0.0625 0.1804 0.0000 ( 37885 PWs)   bands (ev):

   -74.8832 -74.8828 -48.1542 -48.1531 -48.1525 -48.1524 -48.1514 -48.1513
   -48.1502 -48.1491 -48.1245 -48.1242 -48.1229 -48.1225 -48.1220 -48.1217
   -48.1199 -48.1196 -48.1096 -48.1079 -48.1068 -48.1048 -39.1013 -39.1003
   -39.0672 -39.0668 -39.0584 -39.0573 -15.1043 -15.0972 -14.2596 -14.2497
    -6.4607  -6.3921  -4.6799  -4.6134  -3.2621  -3.2573  -2.8402  -2.7760
    -2.4960  -2.4373  -1.6694  -1.6426  -1.1918  -1.0781   0.2775   0.3732
     0.6572   0.6782   2.3676   2.5122   3.0777   3.0848   4.0817

          k = 0.0625 0.2526 0.0000 ( 37916 PWs)   bands (ev):

   -74.8814 -74.8809 -48.1542 -48.1525 -48.1524 -48.1523 -48.1506 -48.1505
   -48.1502 -48.1483 -48.1249 -48.1243 -48.1232 -48.1227 -48.1223 -48.1218
   -48.1202 -48.1197 -48.1092 -48.1075 -48.1064 -48.1044 -39.1420 -39.1410
   -39.0694 -39.0684 -39.0585 -39.0581 -14.7802 -14.7733 -14.1112 -14.1023
    -6.0533  -5.9884  -5.0452  -4.9929  -3.9037  -3.8988  -3.2051  -3.1930
    -2.6372  -2.5631  -1.9284  -1.9035  -1.2419  -1.1729   0.2263   0.3317
     0.8482   0.9029   2.2724   2.4702   3.0802   3.1121   4.5086

          k = 0.0625 0.3248 0.0000 ( 37964 PWs)   bands (ev):

   -74.8794 -74.8789 -48.1542 -48.1525 -48.1523 -48.1515 -48.1501 -48.1497
   -48.1496 -48.1474 -48.1252 -48.1245 -48.1235 -48.1228 -48.1225 -48.1219
   -48.1205 -48.1198 -48.1087 -48.1071 -48.1060 -48.1039 -39.1857 -39.1846
   -39.0810 -39.0800 -39.0495 -39.0490 -14.4005 -14.3939 -13.9282 -13.9206
    -5.7698  -5.7282  -5.2093  -5.1684  -4.8361  -4.8129  -3.4379  -3.4258
    -2.7396  -2.6863  -2.2492  -2.2414  -1.2855  -1.2450   0.3361   0.4454
     1.1041   1.1537   2.4179   2.6320   3.1975   3.2897   4.9975

          k = 0.0625 0.3969 0.0000 ( 37981 PWs)   bands (ev):

   -74.8775 -74.8771 -48.1542 -48.1525 -48.1523 -48.1507 -48.1501 -48.1490
   -48.1488 -48.1466 -48.1256 -48.1246 -48.1239 -48.1229 -48.1228 -48.1220
   -48.1207 -48.1199 -48.1083 -48.1067 -48.1056 -48.1035 -39.2257 -39.2246
   -39.0917 -39.0907 -39.0410 -39.0406 -14.0425 -14.0367 -13.7012 -13.6948
    -6.1373  -6.1313  -5.5270  -5.4977  -4.7939  -4.7436  -3.6881  -3.6735
    -2.9953  -2.9634  -2.4804  -2.4678  -1.2711  -1.2474   0.6400   0.7257
     1.3766   1.4176   2.7226   2.8701   3.3803   3.5563   4.9208

          k = 0.0625 0.4691 0.0000 ( 38057 PWs)   bands (ev):

   -74.8761 -74.8757 -48.1543 -48.1525 -48.1523 -48.1501 -48.1501 -48.1484
   -48.1483 -48.1461 -48.1258 -48.1247 -48.1242 -48.1230 -48.1230 -48.1220
   -48.1209 -48.1199 -48.1080 -48.1064 -48.1053 -48.1032 -39.2562 -39.2551
   -39.0999 -39.0989 -39.0346 -39.0342 -13.8141 -13.8094 -13.4206 -13.4155
    -6.7896  -6.7839  -5.6286  -5.6034  -4.6657  -4.6423  -3.8031  -3.7870
    -3.1648  -3.1298  -2.5767  -2.5650  -1.2702  -1.2582   1.0342   1.0850
     1.6496   1.6870   2.9875   3.0491   3.5539   3.6706   4.5752

          k = 0.0625 0.5413 0.0000 ( 38034 PWs)   bands (ev):

   -74.8753 -74.8749 -48.1543 -48.1525 -48.1522 -48.1500 -48.1498 -48.1480
   -48.1479 -48.1457 -48.1260 -48.1247 -48.1243 -48.1231 -48.1231 -48.1221
   -48.1210 -48.1200 -48.1078 -48.1062 -48.1051 -48.1031 -39.2726 -39.2715
   -39.1043 -39.1033 -39.0311 -39.0307 -13.7141 -13.7101 -13.2135 -13.2096
    -7.1886  -7.1834  -5.5971  -5.5835  -4.8217  -4.8017  -3.8078  -3.8009
    -3.0886  -3.0526  -2.6246  -2.6180  -1.2947  -1.2874   1.3586   1.3745
     1.8238   1.8544   3.1616   3.1887   3.4672   3.5758   4.4079

          k = 0.1250 0.2165 0.0000 ( 37933 PWs)   bands (ev):

   -74.8817 -74.8812 -48.1541 -48.1525 -48.1524 -48.1523 -48.1508 -48.1507
   -48.1501 -48.1485 -48.1248 -48.1243 -48.1231 -48.1227 -48.1222 -48.1218
   -48.1201 -48.1197 -48.1092 -48.1076 -48.1065 -48.1044 -39.1337 -39.1327
   -39.0701 -39.0691 -39.0596 -39.0592 -14.8308 -14.8238 -14.1357 -14.1267
    -6.0989  -6.0319  -4.9981  -4.9441  -3.7369  -3.7331  -3.0101  -2.9472
    -2.8994  -2.8952  -1.9398  -1.8861  -1.0873  -0.9854   0.2596   0.2954
     0.6513   0.7694   2.6059   2.6883   2.6974   2.8161   4.4489

          k = 0.1250 0.2887 0.0000 ( 37936 PWs)   bands (ev):

   -74.8798 -74.8794 -48.1541 -48.1523 -48.1522 -48.1518 -48.1501 -48.1500
   -48.1500 -48.1478 -48.1251 -48.1244 -48.1235 -48.1228 -48.1224 -48.1219
   -48.1203 -48.1198 -48.1088 -48.1072 -48.1061 -48.1040 -39.1710 -39.1699
   -39.0839 -39.0828 -39.0514 -39.0509 -14.4815 -14.4748 -13.9768 -13.9689
    -5.6796  -5.6220  -5.2497  -5.2055  -4.5471  -4.5398  -3.4520  -3.4253
    -2.9794  -2.9688  -2.2134  -2.1806  -0.9648  -0.8878   0.0591   0.1345
     1.0381   1.1405   2.3795   2.4135   2.9638   3.1919   4.9085

          k = 0.1250 0.3608 0.0000 ( 38000 PWs)   bands (ev):

   -74.8780 -74.8775 -48.1540 -48.1522 -48.1521 -48.1511 -48.1499 -48.1494
   -48.1493 -48.1471 -48.1255 -48.1246 -48.1238 -48.1229 -48.1227 -48.1220
   -48.1206 -48.1199 -48.1084 -48.1068 -48.1057 -48.1036 -39.2077 -39.2067
   -39.0980 -39.0969 -39.0430 -39.0426 -14.1062 -14.1001 -13.7884 -13.7817
    -5.7272  -5.7135  -5.3805  -5.3594  -4.9310  -4.8713  -3.8349  -3.8167
    -3.0826  -3.0734  -2.6398  -2.6246  -0.8741  -0.8224   0.1632   0.2498
     1.4400   1.5053   2.2890   2.3428   3.3119   3.5705   5.4009

          k = 0.1250 0.4330 0.0000 ( 38048 PWs)   bands (ev):

   -74.8764 -74.8759 -48.1540 -48.1522 -48.1520 -48.1505 -48.1498 -48.1488
   -48.1487 -48.1465 -48.1257 -48.1247 -48.1240 -48.1230 -48.1229 -48.1221
   -48.1208 -48.1200 -48.1081 -48.1064 -48.1053 -48.1033 -39.2386 -39.2375
   -39.1101 -39.1090 -39.0359 -39.0355 -13.8128 -13.8077 -13.5435 -13.5380
    -6.3551  -6.3498  -5.5753  -5.5495  -4.5772  -4.5380  -4.0867  -4.0650
    -3.2109  -3.2047  -3.0097  -2.9949  -0.8839  -0.8525   0.5225   0.5946
     1.7429   1.7731   2.3877   2.4486   3.6194   3.8219   5.0871

          k = 0.1250 0.5052 0.0000 ( 38027 PWs)   bands (ev):

   -74.8753 -74.8749 -48.1539 -48.1522 -48.1519 -48.1501 -48.1497 -48.1484
   -48.1483 -48.1461 -48.1259 -48.1248 -48.1242 -48.1231 -48.1230 -48.1222
   -48.1210 -48.1201 -48.1079 -48.1062 -48.1051 -48.1031 -39.2591 -39.2580
   -39.1181 -39.1171 -39.0311 -39.0307 -13.6663 -13.6621 -13.2865 -13.2823
    -6.8758  -6.8705  -5.5940  -5.5771  -4.6279  -4.6091  -4.0519  -4.0324
    -3.2998  -3.2941  -3.1167  -3.0958  -0.9665  -0.9458   0.9904   1.0363
     1.8326   1.8463   2.5884   2.6393   3.6487   3.7556   4.8623

          k = 0.1250 0.5774 0.0000 ( 37968 PWs)   bands (ev):

   -74.8750 -74.8745 -48.1539 -48.1521 -48.1518 -48.1500 -48.1497 -48.1482
   -48.1481 -48.1459 -48.1259 -48.1249 -48.1242 -48.1232 -48.1231 -48.1222
   -48.1210 -48.1201 -48.1078 -48.1061 -48.1050 -48.1030 -39.2663 -39.2652
   -39.1210 -39.1199 -39.0294 -39.0290 -13.6212 -13.6174 -13.1787 -13.1752
    -7.0689  -7.0638  -5.5733  -5.5654  -4.7340  -4.7142  -4.0263  -4.0149
    -3.3187  -3.3145  -3.0851  -3.0648  -1.0174  -0.9984   1.3029   1.3124
     1.7388   1.7569   2.7486   2.7512   3.5150   3.6280   4.8519

          k = 0.1875 0.3248 0.0000 ( 37987 PWs)   bands (ev):

   -74.8781 -74.8777 -48.1538 -48.1521 -48.1519 -48.1513 -48.1497 -48.1496
   -48.1495 -48.1473 -48.1254 -48.1246 -48.1237 -48.1229 -48.1226 -48.1221
   -48.1205 -48.1200 -48.1085 -48.1068 -48.1057 -48.1037 -39.1996 -39.1986
   -39.1020 -39.1010 -39.0437 -39.0433 -14.1283 -14.1221 -13.8187 -13.8120
    -5.4376  -5.4072  -5.3956  -5.3848  -5.0053  -4.9503  -3.8400  -3.8153
    -3.3863  -3.3822  -2.5168  -2.5049  -0.6330  -0.5621  -0.0997  -0.0203
     1.4377   1.5208   2.1145   2.1312   3.2962   3.5730   5.3923

          k = 0.1875 0.3969 0.0000 ( 38014 PWs)   bands (ev):

   -74.8765 -74.8761 -48.1536 -48.1519 -48.1516 -48.1509 -48.1495 -48.1491
   -48.1490 -48.1468 -48.1256 -48.1247 -48.1239 -48.1231 -48.1228 -48.1222
   -48.1207 -48.1201 -48.1081 -48.1065 -48.1054 -48.1033 -39.2243 -39.2232
   -39.1204 -39.1194 -39.0366 -39.0362 -13.7850 -13.7796 -13.6381 -13.6326
    -5.9369  -5.9327  -5.5280  -5.5034  -4.6328  -4.5767  -4.1898  -4.1705
    -3.7309  -3.7264  -2.9155  -2.9129  -0.4561  -0.4079   0.0475   0.1193
     1.7680   1.8146   2.0163   2.0610   3.6532   3.8940   5.6174

          k = 0.1875 0.4691 0.0000 ( 38010 PWs)   bands (ev):

   -74.8753 -74.8749 -48.1534 -48.1517 -48.1514 -48.1505 -48.1493 -48.1488
   -48.1487 -48.1465 -48.1258 -48.1249 -48.1241 -48.1232 -48.1230 -48.1223
   -48.1209 -48.1202 -48.1079 -48.1062 -48.1051 -48.1031 -39.2422 -39.2411
   -39.1353 -39.1343 -39.0311 -39.0307 -13.5908 -13.5864 -13.3863 -13.3818
    -6.4521  -6.4474  -5.5743  -5.5577  -4.4425  -4.4257  -4.2521  -4.2170
    -3.9836  -3.9768  -3.2135  -3.2106  -0.5409  -0.5105   0.4987   0.5468
     1.8434   1.8590   2.1665   2.2386   3.8385   3.9523   5.2277

          k = 0.1875 0.5413 0.0000 ( 38010 PWs)   bands (ev):

   -74.8747 -74.8742 -48.1534 -48.1516 -48.1513 -48.1503 -48.1492 -48.1486
   -48.1485 -48.1463 -48.1258 -48.1250 -48.1241 -48.1233 -48.1231 -48.1224
   -48.1210 -48.1203 -48.1077 -48.1061 -48.1050 -48.1030 -39.2516 -39.2505
   -39.1437 -39.1426 -39.0282 -39.0278 -13.5119 -13.5082 -13.2021 -13.1987
    -6.7519  -6.7469  -5.5776  -5.5694  -4.5734  -4.5565  -4.1797  -4.1634
    -4.0615  -4.0546  -3.2691  -3.2608  -0.6464  -0.6219   0.9820   1.0032
     1.6167   1.6249   2.4493   2.5048   3.6381   3.7436   5.1943

          k = 0.2500 0.4330 0.0000 ( 38031 PWs)   bands (ev):

   -74.8753 -74.8749 -48.1532 -48.1514 -48.1512 -48.1508 -48.1492 -48.1489
   -48.1489 -48.1467 -48.1257 -48.1249 -48.1240 -48.1232 -48.1229 -48.1224
   -48.1208 -48.1203 -48.1079 -48.1062 -48.1051 -48.1031 -39.2334 -39.2323
   -39.1443 -39.1433 -39.0311 -39.0307 -13.5048 -13.5005 -13.4821 -13.4775
    -6.1974  -6.1942  -5.5706  -5.5554  -4.4246  -4.4124  -4.3883  -4.3683
    -4.1864  -4.1550  -3.2876  -3.2786  -0.0763  -0.0228   0.0068   0.0290
     1.8210   1.8533   2.0440   2.1138   3.9163   4.0455   5.4084

          k = 0.2500 0.5052 0.0000 ( 38019 PWs)   bands (ev):

   -74.8745 -74.8741 -48.1529 -48.1511 -48.1510 -48.1506 -48.1491 -48.1489
   -48.1485 -48.1467 -48.1257 -48.1251 -48.1240 -48.1234 -48.1230 -48.1225
   -48.1209 -48.1204 -48.1077 -48.1061 -48.1050 -48.1029 -39.2356 -39.2345
   -39.1641 -39.1631 -39.0275 -39.0271 -13.4050 -13.4013 -13.2673 -13.2638
    -6.3693  -6.3651  -5.5964  -5.5887  -4.8108  -4.8068  -4.3869  -4.3676
    -4.0581  -4.0353  -3.5493  -3.5427  -0.1672  -0.1381   0.4347   0.4531
     1.5590   1.5619   2.3585   2.4638   3.8301   3.8832   5.1010

          k = 0.2500 0.5774 0.0000 ( 38023 PWs)   bands (ev):

   -74.8742 -74.8738 -48.1527 -48.1510 -48.1509 -48.1505 -48.1492 -48.1490
   -48.1483 -48.1468 -48.1257 -48.1251 -48.1240 -48.1235 -48.1231 -48.1225
   -48.1210 -48.1204 -48.1077 -48.1060 -48.1049 -48.1029 -39.2352 -39.2341
   -39.1723 -39.1712 -39.0262 -39.0258 -13.3695 -13.3662 -13.1872 -13.1841
    -6.4277  -6.4227  -5.6019  -5.5973  -4.9789  -4.9749  -4.2271  -4.2131
    -4.2084  -4.1929  -3.5649  -3.5618  -0.2260  -0.2008   0.7943   0.8078
     1.2217   1.2272   2.6669   2.7194   3.5823   3.6411   5.0351

          k = 0.3125 0.5413 0.0000 ( 38095 PWs)   bands (ev):

   -74.8741 -74.8736 -48.1523 -48.1512 -48.1506 -48.1502 -48.1495 -48.1493
   -48.1480 -48.1471 -48.1256 -48.1252 -48.1240 -48.1236 -48.1231 -48.1225
   -48.1210 -48.1204 -48.1076 -48.1060 -48.1049 -48.1029 -39.2203 -39.2192
   -39.1915 -39.1904 -39.0255 -39.0252 -13.2822 -13.2790 -13.2200 -13.2170
    -6.1170  -6.1126  -5.6310  -5.6273  -5.4173  -5.4128  -4.2317  -4.2134
    -3.9327  -3.9210  -3.9021  -3.8858   0.2099   0.2426   0.3982   0.4178
     1.0747   1.0782   2.8458   2.9523   3.4995   3.5627   4.8263

     the Fermi energy is    -0.0143 ev

!    total energy              =   -3113.96519086 Ry
     total all-electron energy =    -83998.689755 Ry
     estimated scf accuracy    <       0.00000003 Ry
     smearing contrib. (-TS)   =       0.00043399 Ry
     internal energy E=F+TS    =   -3113.96562485 Ry

     The total energy is F=E-TS. E is the sum of the following terms:
     one-electron contribution =  -26058.49044016 Ry
     hartree contribution      =   13016.39038222 Ry
     xc contribution           =    -193.57833564 Ry
     ewald contribution        =   11883.02667762 Ry
     one-center paw contrib.   =   -1761.31390889 Ry

     convergence has been achieved in  30 iterations

     Writing all to output data dir ./tmp/cleave_008/wse2_cleave_008.save/ :
     XML data file, charge density, pseudopotentials, collected wavefunctions

     init_run     :     28.27s CPU     28.65s WALL (       1 calls)
     electrons    :   1479.80s CPU   1503.28s WALL (       1 calls)

     Called by init_run:
     wfcinit      :     15.34s CPU     15.42s WALL (       1 calls)
     potinit      :     11.89s CPU     11.98s WALL (       1 calls)
     hinit0       :      0.10s CPU      0.11s WALL (       1 calls)

     Called by electrons:
     c_bands      :   1253.26s CPU   1264.13s WALL (      31 calls)
     sum_band     :    162.67s CPU    168.84s WALL (      31 calls)
     v_of_rho     :     37.08s CPU     38.70s WALL (      31 calls)
     newd         :     21.57s CPU     26.43s WALL (      31 calls)
     PAW_pot      :      3.13s CPU      3.17s WALL (      31 calls)
     mix_rho      :     14.13s CPU     14.25s WALL (      31 calls)
     vdW_kernel   :     10.91s CPU     10.92s WALL (       1 calls)

     Called by c_bands:
     init_us_2    :      7.01s CPU      7.03s WALL (    1890 calls)
     cegterg      :   1229.85s CPU   1240.25s WALL (     930 calls)

     Called by *egterg:
     cdiaghg      :     15.15s CPU     15.19s WALL (    4331 calls)
     h_psi        :    532.17s CPU    536.04s WALL (    4391 calls)
     s_psi        :    148.38s CPU    148.60s WALL (    4391 calls)
     g_psi        :      1.55s CPU      1.56s WALL (    3431 calls)

     Called by h_psi:
     h_psi:calbec :    187.51s CPU    189.17s WALL (    4391 calls)
     vloc_psi     :    177.98s CPU    179.88s WALL (    4391 calls)
                                        0.00s GPU  (    4391 calls)
     add_vuspsi   :    164.38s CPU    164.66s WALL (    4391 calls)

     General routines
     calbec       :    271.01s CPU    273.28s WALL (    5321 calls)
     fft          :     16.12s CPU     16.33s WALL (    1952 calls)
     ffts         :      5.32s CPU      5.37s WALL (    3629 calls)
     fftw         :    190.42s CPU    192.40s WALL (  278880 calls)
     interpolate  :      0.32s CPU      0.32s WALL (      31 calls)

     Parallel routines

     PWSCF        :  25m 8.92s CPU  25m33.06s WALL


   This run was terminated on:  14:43:25  18Jun2026            

=------------------------------------------------------------------------------=
   JOB DONE.
=------------------------------------------------------------------------------=
Note: The following floating-point exceptions are signalling: IEEE_UNDERFLOW_FLAG IEEE_DENORMAL
Note: The following floating-point exceptions are signalling: IEEE_UNDERFLOW_FLAG IEEE_DENORMAL
Note: The following floating-point exceptions are signalling: IEEE_UNDERFLOW_FLAG IEEE_DENORMAL
Note: The following floating-point exceptions are signalling: IEEE_UNDERFLOW_FLAG IEEE_DENORMAL
Note: The following floating-point exceptions are signalling: IEEE_UNDERFLOW_FLAG IEEE_DENORMAL
Note: The following floating-point exceptions are signalling: IEEE_UNDERFLOW_FLAG IEEE_DENORMAL
Note: The following floating-point exceptions are signalling: IEEE_UNDERFLOW_FLAG IEEE_DENORMAL
Note: The following floating-point exceptions are signalling: IEEE_UNDERFLOW_FLAG IEEE_DENORMAL
Note: The following floating-point exceptions are signalling: IEEE_UNDERFLOW_FLAG IEEE_DENORMAL
Note: The following floating-point exceptions are signalling: IEEE_UNDERFLOW_FLAG IEEE_DENORMAL
Note: The following floating-point exceptions are signalling: IEEE_UNDERFLOW_FLAG IEEE_DENORMAL
Note: The following floating-point exceptions are signalling: IEEE_UNDERFLOW_FLAG IEEE_DENORMAL
