
     Program PWSCF v.7.5 starts on 18Jun2026 at 17: 2:42 

     This program is part of the open-source Quantum ESPRESSO suite
     for quantum simulation of materials; please cite
         "P. Giannozzi et al., J. Phys.:Condens. Matter 21 395502 (2009);
         "P. Giannozzi et al., J. Phys.:Condens. Matter 29 465901 (2017);
         "P. Giannozzi et al., J. Chem. Phys. 152 154105 (2020);
          URL http://www.quantum-espresso.org", 
     in publications or presentations arising from this work. More details at
     http://www.quantum-espresso.org/quote

     Parallel version (MPI), running on    12 processors

     MPI processes distributed on     1 nodes
     23521 MiB available memory on the printing compute node when the environment starts

     Waiting for input...
     Reading input from standard input

     Current dimensions of program PWSCF are:
     Max number of different atomic species (ntypx) = 10
     Max number of k-points (npk) =  40000
     Max angular momentum in pseudopotentials (lmaxx) =  4
     file W.pbe-spn-kjpaw_psl.1.0.0.UPF: wavefunction(s)  6S 5P 5D renormalized
     file Se.pbe-dn-kjpaw_psl.1.0.0.UPF: wavefunction(s)  4S 4P 3D renormalized

     IMPORTANT: XC functional enforced from input :
     Exchange-correlation= VDW-DF2-B86R
                           (   1   4  26   0   2   0   0)
     Any further DFT definition will be discarded
     Please, verify this is what you really want


     R & G space division:  proc/nbgrp/npool/nimage =      12
     Subspace diagonalization in iterative solution of the eigenvalue problem:
     a serial algorithm will be used


     Parallelization info
     --------------------
     sticks:   dense  smooth     PW     G-vecs:    dense   smooth      PW
     Min         139      70     20                71489    25322    3895
     Max         140      71     22                71558    25395    3945
     Sum        1675     847    253               858263   304337   46813

     Using Slab Decomposition



     bravais-lattice index     =            4
     lattice parameter (alat)  =       6.1983  a.u.
     unit-cell volume          =    3143.7277 (a.u.)^3
     number of atoms/cell      =            6
     number of atomic types    =            2
     number of electrons       =        92.00
     number of Kohn-Sham states=           55
     kinetic-energy cutoff     =      80.0000  Ry
     charge density cutoff     =     640.0000  Ry
     scf convergence threshold =      1.0E-07
     mixing beta               =       0.1000
     number of iterations used =           12  local-TF  mixing
     Exchange-correlation= VDW-DF2-B86R
                           (   1   4  26   0   2   0   0)

     celldm(1)=   6.198302  celldm(2)=   0.000000  celldm(3)=  15.243902
     celldm(4)=   0.000000  celldm(5)=   0.000000  celldm(6)=   0.000000

     crystal axes: (cart. coord. in units of alat)
               a(1) = (   1.000000   0.000000   0.000000 )  
               a(2) = (  -0.500000   0.866025   0.000000 )  
               a(3) = (   0.000000   0.000000  15.243902 )  

     reciprocal axes: (cart. coord. in units 2 pi/alat)
               b(1) = (  1.000000  0.577350 -0.000000 )  
               b(2) = (  0.000000  1.154701  0.000000 )  
               b(3) = (  0.000000 -0.000000  0.065600 )  


     PseudoPot. # 1 for W  read from file:
     ./pseudo/W.pbe-spn-kjpaw_psl.1.0.0.UPF
     MD5 check sum: 03c3df5b60893f488392c7401945500a
     Pseudo is Projector augmented-wave + core cor, Zval = 14.0
     Generated using &quot;atomic&quot; code by A. Dal Corso  v.6.2.2
     Shape of augmentation charge: PSQ
     Using radial grid of 1273 points,  6 beta functions with: 
                l(1) =   0
                l(2) =   0
                l(3) =   1
                l(4) =   1
                l(5) =   2
                l(6) =   2
     Q(r) pseudized with 0 coefficients 


     PseudoPot. # 2 for Se read from file:
     ./pseudo/Se.pbe-dn-kjpaw_psl.1.0.0.UPF
     MD5 check sum: ac240dd2bae32a30e0bf3a38df9c8785
     Pseudo is Projector augmented-wave + core cor, Zval = 16.0
     Generated using &quot;atomic&quot; code by A. Dal Corso  v.6.3
     Shape of augmentation charge: PSQ
     Using radial grid of 1211 points,  6 beta functions with: 
                l(1) =   0
                l(2) =   0
                l(3) =   1
                l(4) =   1
                l(5) =   2
                l(6) =   2
     Q(r) pseudized with 0 coefficients 


     atomic species   valence    mass     pseudopotential
     W                14.00   183.84000     W ( 1.00)
     Se               16.00    78.96000     Se( 1.00)

      6 Sym. Ops. (no inversion) found



   Cartesian axes

     site n.     atom                  positions (alat units)
         1        Se     tau(   1) = (  -0.0000005   0.5773506   6.1149390  )
         2        W      tau(   2) = (   0.0000000   0.0000000   6.6383232  )
         3        Se     tau(   3) = (   0.5000005   0.2886748   7.1618445  )
         4        Se     tau(   4) = (  -0.0000005   0.5773506   9.1791921  )
         5        W      tau(   5) = (   0.5000005   0.2886748   9.7024390  )
         6        Se     tau(   6) = (   0.0000000   0.0000000  10.2265244  )

     number of k points=    30  Methfessel-Paxton smearing, width (Ry)=  0.0200
                       cart. coord. in units 2pi/alat
        k(    1) = (   0.0000000   0.0000000   0.0000000), wk =   0.0078125
        k(    2) = (   0.0000000   0.0721688   0.0000000), wk =   0.0468750
        k(    3) = (   0.0000000   0.1443376   0.0000000), wk =   0.0468750
        k(    4) = (   0.0000000   0.2165064   0.0000000), wk =   0.0468750
        k(    5) = (   0.0000000   0.2886751   0.0000000), wk =   0.0468750
        k(    6) = (   0.0000000   0.3608439   0.0000000), wk =   0.0468750
        k(    7) = (   0.0000000   0.4330127   0.0000000), wk =   0.0468750
        k(    8) = (   0.0000000   0.5051815   0.0000000), wk =   0.0468750
        k(    9) = (   0.0000000  -0.5773503   0.0000000), wk =   0.0234375
        k(   10) = (   0.0625000   0.1082532   0.0000000), wk =   0.0468750
        k(   11) = (   0.0625000   0.1804220   0.0000000), wk =   0.0937500
        k(   12) = (   0.0625000   0.2525907   0.0000000), wk =   0.0937500
        k(   13) = (   0.0625000   0.3247595   0.0000000), wk =   0.0937500
        k(   14) = (   0.0625000   0.3969283   0.0000000), wk =   0.0937500
        k(   15) = (   0.0625000   0.4690971   0.0000000), wk =   0.0937500
        k(   16) = (   0.0625000   0.5412659   0.0000000), wk =   0.0937500
        k(   17) = (   0.1250000   0.2165064   0.0000000), wk =   0.0468750
        k(   18) = (   0.1250000   0.2886751   0.0000000), wk =   0.0937500
        k(   19) = (   0.1250000   0.3608439   0.0000000), wk =   0.0937500
        k(   20) = (   0.1250000   0.4330127   0.0000000), wk =   0.0937500
        k(   21) = (   0.1250000   0.5051815   0.0000000), wk =   0.0937500
        k(   22) = (   0.1250000   0.5773503   0.0000000), wk =   0.0468750
        k(   23) = (   0.1875000   0.3247595   0.0000000), wk =   0.0468750
        k(   24) = (   0.1875000   0.3969283   0.0000000), wk =   0.0937500
        k(   25) = (   0.1875000   0.4690971   0.0000000), wk =   0.0937500
        k(   26) = (   0.1875000   0.5412659   0.0000000), wk =   0.0937500
        k(   27) = (   0.2500000   0.4330127   0.0000000), wk =   0.0468750
        k(   28) = (   0.2500000   0.5051815   0.0000000), wk =   0.0937500
        k(   29) = (   0.2500000   0.5773503   0.0000000), wk =   0.0468750
        k(   30) = (   0.3125000   0.5412659   0.0000000), wk =   0.0468750

     Dense  grid:   858263 G-vectors     FFT dimensions: (  50,  50, 768)

     Smooth grid:   304337 G-vectors     FFT dimensions: (  36,  36, 540)

     Estimated max dynamical RAM per process >     350.14 MB

     Estimated total dynamical RAM >       4.10 GB

     Initial potential from superposition of free atoms

     starting charge      91.9986, renormalised to      92.0000

     negative rho (up, down):  1.703E-04 0.000E+00


     %%%%%%%%%%%%%%%%%%%%%%%%%%%%%%%%%%%%%%%%%%%%%%%%%%%%%%%%%%%%%%%%%%%%%%%%
     %                                                                      %
     % You are using vdW-DF, which was implemented by the Thonhauser group. %
     % Please cite the following two papers that made this development      %
     % possible and the two reviews that describe the various versions:     %
     %                                                                      %
     %   T. Thonhauser et al., PRL 115, 136402 (2015).                      %
     %   T. Thonhauser et al., PRB 76, 125112 (2007).                       %
     %   K. Berland et al., Rep. Prog. Phys. 78, 066501 (2015).             %
     %   D.C. Langreth et al., J. Phys.: Condens. Matter 21, 084203 (2009). %
     %                                                                      %
     % If you are calculating stress with vdW-DF, please also cite:         %
     %                                                                      %
     %   R. Sabatini et al., J. Phys.: Condens. Matter 24, 424209 (2012).   %
     %                                                                      %
     %%%%%%%%%%%%%%%%%%%%%%%%%%%%%%%%%%%%%%%%%%%%%%%%%%%%%%%%%%%%%%%%%%%%%%%%

     %%%%%%%%%%%%%%%%%%%%%%%%%%%%%%%%%%%%%%%%%%%%%%%%%%%%%%%%%%%%%%%%%%%%%%%%
     %                                                                      %
     %  vdW-DF NEWS:                                                        %
     %                                                                      %
     %  * vdW-DF3 is now available. DOI: 10.1021/acs.jctc.0c00471           %
     %    use with input_dft = 'vdW-DF3-opt1' or 'vdW-DF3-opt2'             %
     %                                                                      %
     %  * Unscreened and range-separated hybrid vdW-DF-cx functionals       %
     %    DOI: 10.1063/1.4986522 and 10.1088/1361-648X/ac2ad2               %
     %    use with input_dft = 'vdW-DF-cx0'    and 'vdW-DF-ahcx'            %
     %  * Unscreened and range-separated hybrid vdW-DF2-b86r functionals    %
     %    DOI: 10.1063/1.4986522 and DOI: 10.1103/PhysRevX.12.041003        %
     %    use with input_dft = 'vdW-DF2-br0' and 'vdW-DF2-ahbr'             %
     %                                                                      %
     %%%%%%%%%%%%%%%%%%%%%%%%%%%%%%%%%%%%%%%%%%%%%%%%%%%%%%%%%%%%%%%%%%%%%%%%


     Starting wfcs are   62 randomized atomic wfcs
     Checking if some PAW data can be deallocated... 

     total cpu time spent up to now is       63.9 secs

     per-process dynamical memory:   142.9 Mb

     Self-consistent Calculation

     iteration #  1     ecut=    80.00 Ry     beta= 0.10
     Davidson diagonalization with overlap
     ethr =  1.00E-02,  avg # of iterations =  4.3

     Threshold (ethr) on eigenvalues was too large:
     Diagonalizing with lowered threshold

     Davidson diagonalization with overlap
     ethr =  1.09E-04,  avg # of iterations =  5.6

     negative rho (up, down):  1.133E-04 0.000E+00

     total cpu time spent up to now is      299.0 secs

     total energy              =   -3113.99343819 Ry
     estimated scf accuracy    <       0.12853413 Ry

     iteration #  2     ecut=    80.00 Ry     beta= 0.10
     Davidson diagonalization with overlap
     ethr =  1.40E-04,  avg # of iterations =  1.0

     negative rho (up, down):  2.713E-04 0.000E+00

     total cpu time spent up to now is      387.8 secs

     total energy              =   -3113.94814681 Ry
     estimated scf accuracy    <       0.11760772 Ry

     iteration #  3     ecut=    80.00 Ry     beta= 0.10
     Davidson diagonalization with overlap
     ethr =  1.28E-04,  avg # of iterations =  2.4

     negative rho (up, down):  7.805E-05 0.000E+00

     total cpu time spent up to now is      492.4 secs

     total energy              =   -3113.96269362 Ry
     estimated scf accuracy    <       0.01928675 Ry

     iteration #  4     ecut=    80.00 Ry     beta= 0.10
     Davidson diagonalization with overlap
     ethr =  2.10E-05,  avg # of iterations =  2.9

     negative rho (up, down):  8.891E-07 0.000E+00

     total cpu time spent up to now is      593.3 secs

     total energy              =   -3113.95933403 Ry
     estimated scf accuracy    <       0.01587022 Ry

     iteration #  5     ecut=    80.00 Ry     beta= 0.10
     Davidson diagonalization with overlap
     c_bands:  1 eigenvalues not converged
     c_bands:  1 eigenvalues not converged
     ethr =  1.73E-05,  avg # of iterations =  5.2

     negative rho (up, down):  6.192E-07 0.000E+00

     total cpu time spent up to now is      706.8 secs

     total energy              =   -3113.96079674 Ry
     estimated scf accuracy    <       0.00260603 Ry

     iteration #  6     ecut=    80.00 Ry     beta= 0.10
     Davidson diagonalization with overlap
     c_bands:  1 eigenvalues not converged
     c_bands:  1 eigenvalues not converged
     ethr =  2.83E-06,  avg # of iterations =  6.4

     negative rho (up, down):  1.200E-07 0.000E+00

     total cpu time spent up to now is      799.7 secs

     total energy              =   -3113.95984725 Ry
     estimated scf accuracy    <       0.00245736 Ry

     iteration #  7     ecut=    80.00 Ry     beta= 0.10
     Davidson diagonalization with overlap
     c_bands:  1 eigenvalues not converged
     ethr =  2.67E-06,  avg # of iterations =  5.3

     negative rho (up, down):  1.012E-07 0.000E+00

     total cpu time spent up to now is      905.6 secs

     total energy              =   -3113.95961114 Ry
     estimated scf accuracy    <       0.00276775 Ry

     iteration #  8     ecut=    80.00 Ry     beta= 0.10
     Davidson diagonalization with overlap
     c_bands:  1 eigenvalues not converged
     ethr =  2.67E-06,  avg # of iterations =  4.5

     negative rho (up, down):  1.446E-08 0.000E+00

     total cpu time spent up to now is     1004.9 secs

     total energy              =   -3113.95968649 Ry
     estimated scf accuracy    <       0.00077047 Ry

     iteration #  9     ecut=    80.00 Ry     beta= 0.10
     Davidson diagonalization with overlap
     ethr =  8.37E-07,  avg # of iterations =  6.6

     negative rho (up, down):  1.931E-08 0.000E+00

     total cpu time spent up to now is     1104.5 secs

     total energy              =   -3113.95963137 Ry
     estimated scf accuracy    <       0.00058220 Ry

     iteration # 10     ecut=    80.00 Ry     beta= 0.10
     Davidson diagonalization with overlap
     ethr =  6.33E-07,  avg # of iterations =  1.8

     total cpu time spent up to now is     1195.9 secs

     total energy              =   -3113.95966146 Ry
     estimated scf accuracy    <       0.00045306 Ry

     iteration # 11     ecut=    80.00 Ry     beta= 0.10
     Davidson diagonalization with overlap
     ethr =  4.92E-07,  avg # of iterations =  1.4

     negative rho (up, down):  1.058E-08 0.000E+00

     total cpu time spent up to now is     1273.2 secs

     total energy              =   -3113.95966942 Ry
     estimated scf accuracy    <       0.00038560 Ry

     iteration # 12     ecut=    80.00 Ry     beta= 0.10
     Davidson diagonalization with overlap
     ethr =  4.19E-07,  avg # of iterations =  2.0

     negative rho (up, down):  3.211E-03 0.000E+00

     total cpu time spent up to now is     1360.0 secs

     total energy              =   -3113.95961531 Ry
     estimated scf accuracy    <       0.00037541 Ry

     iteration # 13     ecut=    80.00 Ry     beta= 0.10
     Davidson diagonalization with overlap
     ethr =  4.08E-07,  avg # of iterations =  1.3

     negative rho (up, down):  3.763E-03 0.000E+00

     total cpu time spent up to now is     1446.5 secs

     total energy              =   -3113.95961214 Ry
     estimated scf accuracy    <       0.00032046 Ry

     iteration # 14     ecut=    80.00 Ry     beta= 0.10
     Davidson diagonalization with overlap
     ethr =  3.48E-07,  avg # of iterations =  1.0

     negative rho (up, down):  3.078E-03 0.000E+00

     total cpu time spent up to now is     1520.3 secs

     total energy              =   -3113.95955442 Ry
     estimated scf accuracy    <       0.00032773 Ry

     iteration # 15     ecut=    80.00 Ry     beta= 0.10
     Davidson diagonalization with overlap
     ethr =  3.48E-07,  avg # of iterations =  2.0

     negative rho (up, down):  3.935E-03 0.000E+00

     total cpu time spent up to now is     1608.0 secs

     total energy              =   -3113.95959535 Ry
     estimated scf accuracy    <       0.00018139 Ry

     iteration # 16     ecut=    80.00 Ry     beta= 0.10
     Davidson diagonalization with overlap
     ethr =  1.97E-07,  avg # of iterations =  1.2

     negative rho (up, down):  2.109E-03 0.000E+00

     total cpu time spent up to now is     1678.0 secs

     total energy              =   -3113.95956235 Ry
     estimated scf accuracy    <       0.00016361 Ry

     iteration # 17     ecut=    80.00 Ry     beta= 0.10
     Davidson diagonalization with overlap
     ethr =  1.78E-07,  avg # of iterations =  2.0

     negative rho (up, down):  2.831E-03 0.000E+00

     total cpu time spent up to now is     1759.9 secs

     total energy              =   -3113.95958263 Ry
     estimated scf accuracy    <       0.00014753 Ry

     iteration # 18     ecut=    80.00 Ry     beta= 0.10
     Davidson diagonalization with overlap
     ethr =  1.60E-07,  avg # of iterations =  3.7

     negative rho (up, down):  1.966E-03 0.000E+00

     total cpu time spent up to now is     1834.7 secs

     total energy              =   -3113.95957797 Ry
     estimated scf accuracy    <       0.00018052 Ry

     iteration # 19     ecut=    80.00 Ry     beta= 0.10
     Davidson diagonalization with overlap
     ethr =  1.60E-07,  avg # of iterations =  1.0

     negative rho (up, down):  2.194E-03 0.000E+00

     total cpu time spent up to now is     1900.3 secs

     total energy              =   -3113.95949822 Ry
     estimated scf accuracy    <       0.00012569 Ry

     iteration # 20     ecut=    80.00 Ry     beta= 0.10
     Davidson diagonalization with overlap
     ethr =  1.37E-07,  avg # of iterations =  2.0

     negative rho (up, down):  2.609E-03 0.000E+00

     total cpu time spent up to now is     1982.7 secs

     total energy              =   -3113.95951968 Ry
     estimated scf accuracy    <       0.00004030 Ry

     iteration # 21     ecut=    80.00 Ry     beta= 0.10
     Davidson diagonalization with overlap
     ethr =  4.38E-08,  avg # of iterations =  1.7

     negative rho (up, down):  1.137E-03 0.000E+00

     total cpu time spent up to now is     2049.6 secs

     total energy              =   -3113.95952574 Ry
     estimated scf accuracy    <       0.00006091 Ry

     iteration # 22     ecut=    80.00 Ry     beta= 0.10
     Davidson diagonalization with overlap
     ethr =  4.38E-08,  avg # of iterations =  2.4

     negative rho (up, down):  1.038E-03 0.000E+00

     total cpu time spent up to now is     2143.3 secs

     total energy              =   -3113.95953646 Ry
     estimated scf accuracy    <       0.00001521 Ry

     iteration # 23     ecut=    80.00 Ry     beta= 0.10
     Davidson diagonalization with overlap
     ethr =  1.65E-08,  avg # of iterations =  1.2

     negative rho (up, down):  5.035E-04 0.000E+00

     total cpu time spent up to now is     2211.4 secs

     total energy              =   -3113.95954204 Ry
     estimated scf accuracy    <       0.00001620 Ry

     iteration # 24     ecut=    80.00 Ry     beta= 0.10
     Davidson diagonalization with overlap
     ethr =  1.65E-08,  avg # of iterations =  2.3

     negative rho (up, down):  5.150E-04 0.000E+00

     total cpu time spent up to now is     2291.3 secs

     total energy              =   -3113.95954621 Ry
     estimated scf accuracy    <       0.00000479 Ry

     iteration # 25     ecut=    80.00 Ry     beta= 0.10
     Davidson diagonalization with overlap
     ethr =  5.20E-09,  avg # of iterations =  2.8

     negative rho (up, down):  2.544E-04 0.000E+00

     total cpu time spent up to now is     2382.1 secs

     total energy              =   -3113.95954849 Ry
     estimated scf accuracy    <       0.00000127 Ry

     iteration # 26     ecut=    80.00 Ry     beta= 0.10
     Davidson diagonalization with overlap
     ethr =  1.38E-09,  avg # of iterations =  2.6

     negative rho (up, down):  1.779E-04 0.000E+00

     total cpu time spent up to now is     2463.3 secs

     total energy              =   -3113.95954868 Ry
     estimated scf accuracy    <       0.00000120 Ry

     iteration # 27     ecut=    80.00 Ry     beta= 0.10
     Davidson diagonalization with overlap
     ethr =  1.31E-09,  avg # of iterations =  2.0

     negative rho (up, down):  1.692E-04 0.000E+00

     total cpu time spent up to now is     2538.4 secs

     End of self-consistent calculation

          k = 0.0000 0.0000 0.0000 ( 38015 PWs)   bands (ev):

   -74.8845 -74.8843 -48.1500 -48.1500 -48.1495 -48.1495 -48.1491 -48.1491
   -48.1481 -48.1481 -48.1193 -48.1193 -48.1188 -48.1188 -48.1185 -48.1185
   -48.1175 -48.1175 -48.1053 -48.1046 -48.1044 -48.1034 -39.0775 -39.0771
   -39.0425 -39.0425 -39.0418 -39.0418 -15.5142 -15.5112 -14.4433 -14.4421
    -6.9768  -6.9731  -3.3554  -3.3554  -3.3508  -3.3508  -3.3462  -3.3199
    -1.3420  -1.3102  -0.6915  -0.6914  -0.6893  -0.6893   0.2048   0.2048
     0.2069   0.2069   2.7986   3.4071   3.4072   3.4090   3.4090

          k = 0.0000 0.0722 0.0000 ( 37975 PWs)   bands (ev):

   -74.8841 -74.8839 -48.1500 -48.1499 -48.1495 -48.1493 -48.1491 -48.1490
   -48.1481 -48.1480 -48.1194 -48.1193 -48.1189 -48.1188 -48.1185 -48.1185
   -48.1175 -48.1175 -48.1052 -48.1045 -48.1043 -48.1033 -39.0757 -39.0753
   -39.0516 -39.0509 -39.0446 -39.0439 -15.4531 -15.4501 -14.4152 -14.4140
    -6.8944  -6.8906  -3.8460  -3.8366  -3.3208  -3.3161  -2.9317  -2.9147
    -1.4105  -1.3888  -0.9806  -0.9740  -0.9205  -0.9181   0.1871   0.1980
     0.4062   0.4080   2.8494   3.0789   3.1424   3.3655   3.3673

          k = 0.0000 0.1443 0.0000 ( 37895 PWs)   bands (ev):

   -74.8830 -74.8827 -48.1500 -48.1495 -48.1493 -48.1491 -48.1488 -48.1484
   -48.1481 -48.1474 -48.1196 -48.1195 -48.1190 -48.1188 -48.1187 -48.1186
   -48.1177 -48.1175 -48.1049 -48.1043 -48.1040 -48.1030 -39.0774 -39.0767
   -39.0705 -39.0700 -39.0507 -39.0500 -15.2740 -15.2711 -14.3333 -14.3320
    -6.6547  -6.6509  -4.3496  -4.3428  -3.2377  -3.2331  -2.7082  -2.6929
    -2.0405  -2.0365  -1.3041  -1.3015  -1.2031  -1.1829   0.1813   0.2048
     0.7102   0.7115   2.4255   2.5207   3.2892   3.2908   3.3009

          k = 0.0000 0.2165 0.0000 ( 37851 PWs)   bands (ev):

   -74.8813 -74.8810 -48.1499 -48.1496 -48.1491 -48.1485 -48.1482 -48.1480
   -48.1476 -48.1466 -48.1200 -48.1196 -48.1192 -48.1191 -48.1189 -48.1187
   -48.1179 -48.1176 -48.1045 -48.1039 -48.1037 -48.1026 -39.1157 -39.1150
   -39.0628 -39.0624 -39.0597 -39.0590 -14.9906 -14.9878 -14.2039 -14.2024
    -6.2870  -6.2833  -4.8012  -4.7960  -3.2987  -3.2961  -3.1747  -3.1702
    -2.4536  -2.4400  -1.5967  -1.5939  -1.3371  -1.3254   0.2163   0.2462
     0.9131   0.9139   2.1167   2.2200   3.2628   3.2643   3.6915

          k = 0.0000 0.2887 0.0000 ( 37919 PWs)   bands (ev):

   -74.8793 -74.8790 -48.1500 -48.1496 -48.1491 -48.1482 -48.1477 -48.1472
   -48.1468 -48.1458 -48.1204 -48.1198 -48.1195 -48.1195 -48.1189 -48.1189
   -48.1182 -48.1176 -48.1041 -48.1035 -48.1032 -48.1022 -39.1606 -39.1599
   -39.0703 -39.0696 -39.0536 -39.0532 -14.6298 -14.6271 -14.0358 -14.0341
    -5.8959  -5.8925  -5.1172  -5.1131  -4.3566  -4.3538  -3.2202  -3.2160
    -2.6227  -2.6136  -1.6944  -1.6914  -1.6380  -1.6327   0.3744   0.4044
     1.0179   1.0186   2.2478   2.3690   3.3080   3.3096   4.1737

          k = 0.0000 0.3608 0.0000 ( 37933 PWs)   bands (ev):

   -74.8773 -74.8770 -48.1501 -48.1495 -48.1492 -48.1481 -48.1468 -48.1463
   -48.1459 -48.1449 -48.1209 -48.1199 -48.1199 -48.1197 -48.1190 -48.1190
   -48.1185 -48.1177 -48.1037 -48.1030 -48.1028 -48.1018 -39.2052 -39.2044
   -39.0809 -39.0802 -39.0445 -39.0441 -14.2452 -14.2426 -13.8308 -13.8289
    -5.9069  -5.9040  -5.3331  -5.3304  -4.9161  -4.9124  -3.3693  -3.3652
    -2.9671  -2.9623  -1.9416  -1.9378  -1.6339  -1.6310   0.7170   0.7420
     1.1111   1.1120   2.6877   2.8170   3.3818   3.3836   4.6856

          k = 0.0000 0.4330 0.0000 ( 37998 PWs)   bands (ev):

   -74.8756 -74.8753 -48.1502 -48.1494 -48.1493 -48.1481 -48.1460 -48.1456
   -48.1451 -48.1442 -48.1213 -48.1203 -48.1201 -48.1199 -48.1191 -48.1190
   -48.1187 -48.1178 -48.1033 -48.1027 -48.1024 -48.1014 -39.2427 -39.2419
   -39.0899 -39.0892 -39.0367 -39.0363 -13.9407 -13.9380 -13.5678 -13.5658
    -6.5214  -6.5185  -5.6024  -5.5998  -4.6931  -4.6906  -3.5338  -3.5299
    -3.2594  -3.2559  -2.1281  -2.1256  -1.5385  -1.5358   1.1867   1.2044
     1.2499   1.2512   3.2087   3.3093   3.4436   3.4457   4.5274

          k = 0.0000 0.5052 0.0000 ( 38048 PWs)   bands (ev):

   -74.8744 -74.8742 -48.1503 -48.1494 -48.1493 -48.1481 -48.1455 -48.1451
   -48.1447 -48.1437 -48.1215 -48.1205 -48.1202 -48.1200 -48.1192 -48.1190
   -48.1188 -48.1178 -48.1031 -48.1024 -48.1022 -48.1012 -39.2676 -39.2668
   -39.0959 -39.0951 -39.0315 -39.0312 -13.7791 -13.7764 -13.2995 -13.2976
    -7.0854  -7.0825  -5.6199  -5.6179  -4.7684  -4.7667  -3.6506  -3.6467
    -3.1919  -3.1889  -2.2456  -2.2442  -1.4771  -1.4746   1.3993   1.4009
     1.6623   1.6724   3.4410   3.4684   3.4800   3.4822   4.4592

          k = 0.0000-0.5774 0.0000 ( 38024 PWs)   bands (ev):

   -74.8740 -74.8738 -48.1503 -48.1494 -48.1493 -48.1480 -48.1454 -48.1450
   -48.1445 -48.1436 -48.1216 -48.1206 -48.1202 -48.1201 -48.1192 -48.1191
   -48.1189 -48.1178 -48.1030 -48.1023 -48.1021 -48.1011 -39.2763 -39.2755
   -39.0980 -39.0972 -39.0297 -39.0293 -13.7294 -13.7266 -13.1851 -13.1832
    -7.2982  -7.2952  -5.5846  -5.5830  -4.8906  -4.8887  -3.6919  -3.6881
    -3.0756  -3.0733  -2.2984  -2.2974  -1.4580  -1.4557   1.4659   1.4677
     1.8886   1.8924   3.4672   3.4844   3.4915   3.4938   4.2047

          k = 0.0625 0.1083 0.0000 ( 37895 PWs)   bands (ev):

   -74.8834 -74.8831 -48.1499 -48.1495 -48.1495 -48.1491 -48.1490 -48.1486
   -48.1481 -48.1476 -48.1195 -48.1194 -48.1190 -48.1188 -48.1187 -48.1185
   -48.1176 -48.1175 -48.1050 -48.1044 -48.1041 -48.1031 -39.0722 -39.0718
   -39.0687 -39.0680 -39.0490 -39.0482 -15.3329 -15.3300 -14.3603 -14.3590
    -6.7329  -6.7291  -4.2153  -4.2079  -3.2696  -3.2650  -2.7310  -2.7140
    -1.7810  -1.7772  -1.3132  -1.3102  -1.1134  -1.0928   0.2519   0.2717
     0.5586   0.5600   2.6297   2.7370   3.1708   3.2303   3.2853

          k = 0.0625 0.1804 0.0000 ( 37885 PWs)   bands (ev):

   -74.8819 -74.8817 -48.1499 -48.1496 -48.1490 -48.1489 -48.1484 -48.1481
   -48.1480 -48.1470 -48.1199 -48.1195 -48.1191 -48.1190 -48.1189 -48.1187
   -48.1178 -48.1176 -48.1047 -48.1040 -48.1038 -48.1028 -39.1001 -39.0994
   -39.0659 -39.0655 -39.0571 -39.0564 -15.1013 -15.0985 -14.2548 -14.2533
    -6.4251  -6.4212  -4.6462  -4.6406  -3.2610  -3.2566  -2.8065  -2.7997
    -2.4707  -2.4638  -1.6568  -1.6524  -1.1456  -1.1281   0.3109   0.3343
     0.6623   0.6684   2.3603   2.4604   3.0706   3.0828   3.5604

          k = 0.0625 0.2526 0.0000 ( 37916 PWs)   bands (ev):

   -74.8801 -74.8798 -48.1499 -48.1495 -48.1490 -48.1481 -48.1481 -48.1476
   -48.1472 -48.1462 -48.1203 -48.1197 -48.1194 -48.1193 -48.1189 -48.1188
   -48.1181 -48.1176 -48.1043 -48.1036 -48.1034 -48.1024 -39.1407 -39.1400
   -39.0682 -39.0674 -39.0572 -39.0568 -14.7773 -14.7746 -14.1069 -14.1053
    -6.0193  -6.0156  -5.0191  -5.0145  -3.9016  -3.8987  -3.1995  -3.1958
    -2.6015  -2.5940  -1.9170  -1.9133  -1.2113  -1.2018   0.2686   0.2907
     0.8656   0.8796   2.2981   2.3950   3.0720   3.0994   3.9937

          k = 0.0625 0.3248 0.0000 ( 37964 PWs)   bands (ev):

   -74.8781 -74.8778 -48.1499 -48.1495 -48.1491 -48.1481 -48.1472 -48.1468
   -48.1463 -48.1454 -48.1207 -48.1199 -48.1197 -48.1196 -48.1190 -48.1189
   -48.1183 -48.1177 -48.1039 -48.1032 -48.1030 -48.1020 -39.1844 -39.1837
   -39.0797 -39.0790 -39.0481 -39.0477 -14.3978 -14.3951 -13.9247 -13.9229
    -5.7475  -5.7444  -5.1884  -5.1850  -4.8249  -4.8218  -3.4324  -3.4289
    -2.7138  -2.7089  -2.2456  -2.2435  -1.2663  -1.2613   0.3838   0.4034
     1.1226   1.1340   2.4676   2.5541   3.1972   3.2493   4.5060

          k = 0.0625 0.3969 0.0000 ( 37981 PWs)   bands (ev):

   -74.8762 -74.8760 -48.1500 -48.1493 -48.1491 -48.1480 -48.1464 -48.1460
   -48.1455 -48.1446 -48.1211 -48.1201 -48.1200 -48.1198 -48.1191 -48.1191
   -48.1186 -48.1178 -48.1035 -48.1028 -48.1026 -48.1016 -39.2245 -39.2237
   -39.0904 -39.0897 -39.0397 -39.0393 -14.0402 -14.0376 -13.6985 -13.6965
    -6.1344  -6.1316  -5.5113  -5.5084  -4.7683  -4.7651  -3.6812  -3.6781
    -2.9795  -2.9768  -2.4742  -2.4722  -1.2595  -1.2565   0.6800   0.6934
     1.3939   1.4020   2.7730   2.8242   3.4057   3.4836   4.8546

          k = 0.0625 0.4691 0.0000 ( 38057 PWs)   bands (ev):

   -74.8748 -74.8745 -48.1502 -48.1492 -48.1492 -48.1479 -48.1458 -48.1454
   -48.1449 -48.1440 -48.1214 -48.1204 -48.1202 -48.1199 -48.1192 -48.1191
   -48.1187 -48.1178 -48.1032 -48.1025 -48.1023 -48.1013 -39.2549 -39.2541
   -39.0986 -39.0979 -39.0332 -39.0328 -13.8125 -13.8098 -13.4186 -13.4166
    -6.7869  -6.7840  -5.6150  -5.6126  -4.6535  -4.6515  -3.7953  -3.7920
    -3.1472  -3.1446  -2.5707  -2.5691  -1.2640  -1.2621   1.0595   1.0665
     1.6671   1.6733   3.0155   3.0335   3.5960   3.6387   4.7237

          k = 0.0625 0.5413 0.0000 ( 38034 PWs)   bands (ev):

   -74.8740 -74.8738 -48.1502 -48.1492 -48.1492 -48.1479 -48.1455 -48.1451
   -48.1446 -48.1437 -48.1216 -48.1206 -48.1203 -48.1200 -48.1193 -48.1191
   -48.1188 -48.1179 -48.1030 -48.1023 -48.1021 -48.1011 -39.2713 -39.2705
   -39.1031 -39.1023 -39.0297 -39.0293 -13.7130 -13.7102 -13.2121 -13.2101
    -7.1861  -7.1831  -5.5893  -5.5875  -4.8114  -4.8096  -3.8050  -3.8015
    -3.0698  -3.0676  -2.6210  -2.6197  -1.2908  -1.2893   1.3675   1.3698
     1.8405   1.8445   3.1772   3.1826   3.5250   3.5426   4.4972

          k = 0.1250 0.2165 0.0000 ( 37933 PWs)   bands (ev):

   -74.8804 -74.8801 -48.1498 -48.1495 -48.1490 -48.1483 -48.1481 -48.1478
   -48.1474 -48.1464 -48.1202 -48.1196 -48.1193 -48.1192 -48.1190 -48.1188
   -48.1180 -48.1177 -48.1044 -48.1037 -48.1035 -48.1025 -39.1325 -39.1317
   -39.0689 -39.0681 -39.0583 -39.0579 -14.8278 -14.8251 -14.1314 -14.1298
    -6.0639  -6.0601  -4.9711  -4.9664  -3.7357  -3.7324  -2.9791  -2.9731
    -2.8983  -2.8948  -1.9146  -1.9078  -1.0432  -1.0286   0.2752   0.2834
     0.6901   0.7186   2.6078   2.6933   2.6936   2.7377   3.9391

          k = 0.1250 0.2887 0.0000 ( 37936 PWs)   bands (ev):

   -74.8785 -74.8783 -48.1498 -48.1493 -48.1489 -48.1479 -48.1475 -48.1471
   -48.1467 -48.1457 -48.1206 -48.1198 -48.1197 -48.1195 -48.1191 -48.1189
   -48.1182 -48.1178 -48.1040 -48.1033 -48.1031 -48.1020 -39.1697 -39.1690
   -39.0826 -39.0819 -39.0500 -39.0496 -14.4787 -14.4761 -13.9732 -13.9714
    -5.6486  -5.6452  -5.2284  -5.2244  -4.5438  -4.5408  -3.4387  -3.4357
    -2.9747  -2.9717  -2.1978  -2.1939  -0.9286  -0.9185   0.0914   0.1046
     1.0751   1.0989   2.3876   2.4053   2.9751   3.1026   4.4106

          k = 0.1250 0.3608 0.0000 ( 38000 PWs)   bands (ev):

   -74.8767 -74.8764 -48.1498 -48.1491 -48.1488 -48.1478 -48.1468 -48.1464
   -48.1459 -48.1450 -48.1210 -48.1200 -48.1199 -48.1197 -48.1192 -48.1190
   -48.1184 -48.1179 -48.1036 -48.1029 -48.1027 -48.1017 -39.2065 -39.2057
   -39.0967 -39.0960 -39.0417 -39.0413 -14.1038 -14.1012 -13.7855 -13.7835
    -5.7199  -5.7170  -5.3693  -5.3664  -4.9010  -4.8973  -3.8262  -3.8235
    -3.0784  -3.0758  -2.6324  -2.6305  -0.8485  -0.8424   0.2023   0.2150
     1.4668   1.4808   2.3076   2.3260   3.3466   3.4718   4.9310

          k = 0.1250 0.4330 0.0000 ( 38048 PWs)   bands (ev):

   -74.8751 -74.8748 -48.1498 -48.1490 -48.1488 -48.1476 -48.1462 -48.1458
   -48.1454 -48.1444 -48.1213 -48.1203 -48.1202 -48.1198 -48.1193 -48.1192
   -48.1186 -48.1180 -48.1032 -48.1026 -48.1023 -48.1013 -39.2374 -39.2366
   -39.1088 -39.1081 -39.0345 -39.0341 -13.8109 -13.8083 -13.5413 -13.5392
    -6.3527  -6.3499  -5.5615  -5.5588  -4.5568  -4.5542  -4.0764  -4.0735
    -3.2079  -3.2057  -3.0024  -3.0007  -0.8676  -0.8644   0.5568   0.5663
     1.7573   1.7629   2.4135   2.4290   3.6711   3.7537   5.0400

          k = 0.1250 0.5052 0.0000 ( 38027 PWs)   bands (ev):

   -74.8740 -74.8738 -48.1498 -48.1488 -48.1488 -48.1475 -48.1458 -48.1454
   -48.1449 -48.1440 -48.1214 -48.1204 -48.1204 -48.1198 -48.1194 -48.1193
   -48.1187 -48.1180 -48.1030 -48.1024 -48.1021 -48.1011 -39.2578 -39.2570
   -39.1169 -39.1161 -39.0298 -39.0294 -13.6650 -13.6623 -13.2850 -13.2829
    -6.8733  -6.8704  -5.5847  -5.5825  -4.6181  -4.6162  -4.0423  -4.0394
    -3.2970  -3.2951  -3.1062  -3.1043  -0.9550  -0.9533   1.0136   1.0190
     1.8405   1.8426   2.6135   2.6236   3.7009   3.7240   4.9309

          k = 0.1250 0.5774 0.0000 ( 37968 PWs)   bands (ev):

   -74.8737 -74.8734 -48.1498 -48.1488 -48.1488 -48.1475 -48.1456 -48.1453
   -48.1448 -48.1439 -48.1215 -48.1205 -48.1205 -48.1198 -48.1195 -48.1193
   -48.1187 -48.1180 -48.1029 -48.1023 -48.1020 -48.1010 -39.2650 -39.2642
   -39.1197 -39.1190 -39.0281 -39.0277 -13.6202 -13.6174 -13.1775 -13.1755
    -7.0664  -7.0634  -5.5685  -5.5666  -4.7238  -4.7218  -4.0208  -4.0179
    -3.3167  -3.3150  -3.0745  -3.0728  -1.0066  -1.0053   1.3092   1.3108
     1.7495   1.7514   2.7543   2.7567   3.5724   3.5918   4.9455

          k = 0.1875 0.3248 0.0000 ( 37987 PWs)   bands (ev):

   -74.8768 -74.8766 -48.1496 -48.1490 -48.1487 -48.1476 -48.1470 -48.1466
   -48.1462 -48.1452 -48.1210 -48.1200 -48.1198 -48.1196 -48.1193 -48.1190
   -48.1184 -48.1180 -48.1036 -48.1030 -48.1027 -48.1017 -39.1984 -39.1976
   -39.1008 -39.1000 -39.0423 -39.0419 -14.1257 -14.1232 -13.8158 -13.8138
    -5.4164  -5.4132  -5.3947  -5.3921  -4.9781  -4.9744  -3.8279  -3.8255
    -3.3850  -3.3818  -2.5110  -2.5092  -0.5970  -0.5882  -0.0656  -0.0543
     1.4709   1.4890   2.1204   2.1279   3.3302   3.4688   4.9009

          k = 0.1875 0.3969 0.0000 ( 38014 PWs)   bands (ev):

   -74.8752 -74.8750 -48.1495 -48.1486 -48.1485 -48.1473 -48.1466 -48.1462
   -48.1457 -48.1448 -48.1212 -48.1202 -48.1200 -48.1197 -48.1195 -48.1192
   -48.1185 -48.1181 -48.1032 -48.1026 -48.1024 -48.1014 -39.2230 -39.2223
   -39.1192 -39.1184 -39.0352 -39.0348 -13.7829 -13.7805 -13.6360 -13.6337
    -5.9351  -5.9324  -5.5149  -5.5117  -4.6040  -4.6007  -4.1808  -4.1785
    -3.7291  -3.7264  -2.9141  -2.9131  -0.4305  -0.4250   0.0802   0.0890
     1.7907   1.7996   2.0337   2.0448   3.7041   3.8077   5.3713

          k = 0.1875 0.4691 0.0000 ( 38010 PWs)   bands (ev):

   -74.8740 -74.8738 -48.1493 -48.1484 -48.1483 -48.1471 -48.1462 -48.1459
   -48.1454 -48.1444 -48.1213 -48.1204 -48.1203 -48.1198 -48.1195 -48.1194
   -48.1187 -48.1182 -48.1030 -48.1024 -48.1021 -48.1011 -39.2410 -39.2402
   -39.1341 -39.1333 -39.0298 -39.0294 -13.5893 -13.5868 -13.3847 -13.3825
    -6.4499  -6.4471  -5.5654  -5.5626  -4.4332  -4.4310  -4.2348  -4.2323
    -3.9806  -3.9783  -3.2118  -3.2107  -0.5243  -0.5215   0.5226   0.5280
     1.8525   1.8551   2.1997   2.2127   3.8810   3.9196   5.2226

          k = 0.1875 0.5413 0.0000 ( 38010 PWs)   bands (ev):

   -74.8734 -74.8731 -48.1492 -48.1483 -48.1483 -48.1470 -48.1460 -48.1457
   -48.1452 -48.1443 -48.1213 -48.1206 -48.1204 -48.1198 -48.1196 -48.1195
   -48.1187 -48.1182 -48.1028 -48.1023 -48.1020 -48.1010 -39.2504 -39.2496
   -39.1424 -39.1417 -39.0268 -39.0265 -13.5109 -13.5082 -13.2011 -13.1989
    -6.7495  -6.7466  -5.5730  -5.5706  -4.5646  -4.5623  -4.1711  -4.1689
    -4.0585  -4.0567  -3.2647  -3.2633  -0.6324  -0.6308   0.9939   0.9962
     1.6221   1.6235   2.4794   2.4878   3.6908   3.7076   5.2462

          k = 0.2500 0.4330 0.0000 ( 38031 PWs)   bands (ev):

   -74.8740 -74.8738 -48.1491 -48.1482 -48.1481 -48.1469 -48.1465 -48.1461
   -48.1456 -48.1447 -48.1213 -48.1203 -48.1202 -48.1199 -48.1196 -48.1193
   -48.1187 -48.1183 -48.1030 -48.1024 -48.1021 -48.1011 -39.2321 -39.2313
   -39.1431 -39.1423 -39.0298 -39.0294 -13.5031 -13.5008 -13.4807 -13.4782
    -6.1960  -6.1932  -5.5625  -5.5595  -4.4151  -4.4129  -4.3804  -4.3782
    -4.1718  -4.1691  -3.2828  -3.2820  -0.0402  -0.0345   0.0100   0.0123
     1.8392   1.8443   2.0744   2.0867   3.9573   4.0058   5.3863

          k = 0.2500 0.5052 0.0000 ( 38019 PWs)   bands (ev):

   -74.8732 -74.8730 -48.1487 -48.1478 -48.1478 -48.1465 -48.1465 -48.1461
   -48.1456 -48.1447 -48.1212 -48.1205 -48.1202 -48.1201 -48.1196 -48.1196
   -48.1188 -48.1183 -48.1028 -48.1022 -48.1019 -48.1010 -39.2344 -39.2336
   -39.1629 -39.1621 -39.0262 -39.0258 -13.4039 -13.4014 -13.2663 -13.2640
    -6.3673  -6.3645  -5.5923  -5.5894  -4.8089  -4.8061  -4.3766  -4.3749
    -4.0468  -4.0449  -3.5458  -3.5448  -0.1506  -0.1484   0.4451   0.4467
     1.5618   1.5630   2.4097   2.4246   3.8605   3.8695   5.1161

          k = 0.2500 0.5774 0.0000 ( 38023 PWs)   bands (ev):

   -74.8729 -74.8727 -48.1486 -48.1476 -48.1476 -48.1465 -48.1463 -48.1462
   -48.1456 -48.1447 -48.1211 -48.1207 -48.1202 -48.1201 -48.1197 -48.1196
   -48.1189 -48.1183 -48.1028 -48.1022 -48.1019 -48.1009 -39.2339 -39.2331
   -39.1711 -39.1703 -39.0249 -39.0245 -13.3686 -13.3661 -13.1864 -13.1841
    -6.4253  -6.4225  -5.5994  -5.5966  -4.9770  -4.9742  -4.2118  -4.2105
    -4.2082  -4.2065  -3.5632  -3.5619  -0.2113  -0.2097   0.8032   0.8037
     1.2252   1.2269   2.6995   2.7057   3.6127   3.6226   5.0360

          k = 0.3125 0.5413 0.0000 ( 38095 PWs)   bands (ev):

   -74.8728 -74.8725 -48.1482 -48.1472 -48.1472 -48.1468 -48.1465 -48.1461
   -48.1457 -48.1451 -48.1210 -48.1207 -48.1203 -48.1201 -48.1198 -48.1196
   -48.1190 -48.1183 -48.1027 -48.1022 -48.1019 -48.1009 -39.2190 -39.2183
   -39.1902 -39.1894 -39.0242 -39.0238 -13.2813 -13.2789 -13.2193 -13.2168
    -6.1149  -6.1122  -5.6291  -5.6262  -5.4152  -5.4123  -4.2216  -4.2201
    -3.9259  -3.9243  -3.8949  -3.8937   0.2288   0.2312   0.4091   0.4102
     1.0771   1.0788   2.9007   2.9138   3.5363   3.5427   4.8404

     the Fermi energy is    -0.0090 ev

!    total energy              =   -3113.95954959 Ry
     total all-electron energy =    -83998.684114 Ry
     estimated scf accuracy    <       0.00000003 Ry
     smearing contrib. (-TS)   =       0.00045237 Ry
     internal energy E=F+TS    =   -3113.96000196 Ry

     The total energy is F=E-TS. E is the sum of the following terms:
     one-electron contribution =  -22204.62889676 Ry
     hartree contribution      =   11089.46688871 Ry
     xc contribution           =    -193.57553372 Ry
     ewald contribution        =    9956.09161728 Ry
     one-center paw contrib.   =   -1761.31407748 Ry

     convergence has been achieved in  27 iterations

     Writing all to output data dir ./tmp/cleave_018/wse2_cleave_018.save/ :
     XML data file, charge density, pseudopotentials, collected wavefunctions

     init_run     :     52.92s CPU     59.13s WALL (       1 calls)
     electrons    :   1994.59s CPU   2474.56s WALL (       1 calls)

     Called by init_run:
     wfcinit      :     29.93s CPU     34.71s WALL (       1 calls)
     potinit      :     20.82s CPU     21.52s WALL (       1 calls)
     hinit0       :      0.37s CPU      0.39s WALL (       1 calls)

     Called by electrons:
     c_bands      :   1626.33s CPU   2006.08s WALL (      28 calls)
     sum_band     :    237.10s CPU    302.87s WALL (      28 calls)
     v_of_rho     :     69.22s CPU     79.92s WALL (      28 calls)
     newd         :     25.21s CPU     34.67s WALL (      28 calls)
     PAW_pot      :      5.24s CPU      6.03s WALL (      28 calls)
     mix_rho      :     52.04s CPU     66.27s WALL (      28 calls)
     vdW_kernel   :     17.95s CPU     18.54s WALL (       1 calls)

     Called by c_bands:
     init_us_2    :      4.86s CPU      6.39s WALL (    1710 calls)
     cegterg      :   1586.98s CPU   1959.00s WALL (     840 calls)

     Called by *egterg:
     cdiaghg      :     23.51s CPU     30.43s WALL (    3167 calls)
     h_psi        :    838.46s CPU   1038.97s WALL (    3227 calls)
     s_psi        :     99.13s CPU    123.49s WALL (    3227 calls)
     g_psi        :      1.18s CPU      1.55s WALL (    2357 calls)

     Called by h_psi:
     h_psi:calbec :    192.90s CPU    237.13s WALL (    3227 calls)
     vloc_psi     :    526.70s CPU    648.74s WALL (    3227 calls)
                                        0.00s GPU  (    3227 calls)
     add_vuspsi   :    117.52s CPU    151.41s WALL (    3227 calls)

     General routines
     calbec       :    276.07s CPU    340.66s WALL (    4067 calls)
     fft          :     43.90s CPU     51.20s WALL (    1763 calls)
     ffts         :     17.83s CPU     22.21s WALL (    3254 calls)
     fftw         :    618.97s CPU    767.86s WALL (  251326 calls)
     interpolate  :      0.89s CPU      0.99s WALL (      28 calls)

     Parallel routines

     PWSCF        :  34m14.30s CPU  42m24.38s WALL


   This run was terminated on:  17:45: 6  18Jun2026            

=------------------------------------------------------------------------------=
   JOB DONE.
=------------------------------------------------------------------------------=
Note: The following floating-point exceptions are signalling: IEEE_UNDERFLOW_FLAG IEEE_DENORMAL
Note: The following floating-point exceptions are signalling: IEEE_UNDERFLOW_FLAG IEEE_DENORMAL
Note: The following floating-point exceptions are signalling: IEEE_UNDERFLOW_FLAG IEEE_DENORMAL
Note: The following floating-point exceptions are signalling: IEEE_UNDERFLOW_FLAG IEEE_DENORMAL
Note: The following floating-point exceptions are signalling: IEEE_UNDERFLOW_FLAG IEEE_DENORMAL
Note: The following floating-point exceptions are signalling: IEEE_UNDERFLOW_FLAG IEEE_DENORMAL
Note: The following floating-point exceptions are signalling: IEEE_UNDERFLOW_FLAG IEEE_DENORMAL
Note: The following floating-point exceptions are signalling: IEEE_UNDERFLOW_FLAG IEEE_DENORMAL
Note: The following floating-point exceptions are signalling: IEEE_UNDERFLOW_FLAG IEEE_DENORMAL
Note: The following floating-point exceptions are signalling: IEEE_UNDERFLOW_FLAG IEEE_DENORMAL
Note: The following floating-point exceptions are signalling: IEEE_UNDERFLOW_FLAG IEEE_DENORMAL
Note: The following floating-point exceptions are signalling: IEEE_UNDERFLOW_FLAG IEEE_DENORMAL
