
     Program PWSCF v.7.5 starts on 18Jun2026 at 21:42:50 

     This program is part of the open-source Quantum ESPRESSO suite
     for quantum simulation of materials; please cite
         "P. Giannozzi et al., J. Phys.:Condens. Matter 21 395502 (2009);
         "P. Giannozzi et al., J. Phys.:Condens. Matter 29 465901 (2017);
         "P. Giannozzi et al., J. Chem. Phys. 152 154105 (2020);
          URL http://www.quantum-espresso.org", 
     in publications or presentations arising from this work. More details at
     http://www.quantum-espresso.org/quote

     Parallel version (MPI), running on    12 processors

     MPI processes distributed on     1 nodes
     22744 MiB available memory on the printing compute node when the environment starts

     Waiting for input...
     Reading input from standard input

     Current dimensions of program PWSCF are:
     Max number of different atomic species (ntypx) = 10
     Max number of k-points (npk) =  40000
     Max angular momentum in pseudopotentials (lmaxx) =  4
     file W.pbe-spn-kjpaw_psl.1.0.0.UPF: wavefunction(s)  6S 5P 5D renormalized
     file Se.pbe-dn-kjpaw_psl.1.0.0.UPF: wavefunction(s)  4S 4P 3D renormalized

     IMPORTANT: XC functional enforced from input :
     Exchange-correlation= VDW-DF2-B86R
                           (   1   4  26   0   2   0   0)
     Any further DFT definition will be discarded
     Please, verify this is what you really want


     R & G space division:  proc/nbgrp/npool/nimage =      12
     Subspace diagonalization in iterative solution of the eigenvalue problem:
     a serial algorithm will be used


     Parallelization info
     --------------------
     sticks:   dense  smooth     PW     G-vecs:    dense   smooth      PW
     Min         139      70     20                71489    25322    3895
     Max         140      71     22                71558    25395    3945
     Sum        1675     847    253               858263   304337   46813

     Using Slab Decomposition



     bravais-lattice index     =            4
     lattice parameter (alat)  =       6.1983  a.u.
     unit-cell volume          =    3143.7277 (a.u.)^3
     number of atoms/cell      =            6
     number of atomic types    =            2
     number of electrons       =        92.00
     number of Kohn-Sham states=           55
     kinetic-energy cutoff     =      80.0000  Ry
     charge density cutoff     =     640.0000  Ry
     scf convergence threshold =      1.0E-07
     mixing beta               =       0.1000
     number of iterations used =           12  local-TF  mixing
     Exchange-correlation= VDW-DF2-B86R
                           (   1   4  26   0   2   0   0)

     celldm(1)=   6.198302  celldm(2)=   0.000000  celldm(3)=  15.243902
     celldm(4)=   0.000000  celldm(5)=   0.000000  celldm(6)=   0.000000

     crystal axes: (cart. coord. in units of alat)
               a(1) = (   1.000000   0.000000   0.000000 )  
               a(2) = (  -0.500000   0.866025   0.000000 )  
               a(3) = (   0.000000   0.000000  15.243902 )  

     reciprocal axes: (cart. coord. in units 2 pi/alat)
               b(1) = (  1.000000  0.577350 -0.000000 )  
               b(2) = (  0.000000  1.154701  0.000000 )  
               b(3) = (  0.000000 -0.000000  0.065600 )  


     PseudoPot. # 1 for W  read from file:
     ./pseudo/W.pbe-spn-kjpaw_psl.1.0.0.UPF
     MD5 check sum: 03c3df5b60893f488392c7401945500a
     Pseudo is Projector augmented-wave + core cor, Zval = 14.0
     Generated using &quot;atomic&quot; code by A. Dal Corso  v.6.2.2
     Shape of augmentation charge: PSQ
     Using radial grid of 1273 points,  6 beta functions with: 
                l(1) =   0
                l(2) =   0
                l(3) =   1
                l(4) =   1
                l(5) =   2
                l(6) =   2
     Q(r) pseudized with 0 coefficients 


     PseudoPot. # 2 for Se read from file:
     ./pseudo/Se.pbe-dn-kjpaw_psl.1.0.0.UPF
     MD5 check sum: ac240dd2bae32a30e0bf3a38df9c8785
     Pseudo is Projector augmented-wave + core cor, Zval = 16.0
     Generated using &quot;atomic&quot; code by A. Dal Corso  v.6.3
     Shape of augmentation charge: PSQ
     Using radial grid of 1211 points,  6 beta functions with: 
                l(1) =   0
                l(2) =   0
                l(3) =   1
                l(4) =   1
                l(5) =   2
                l(6) =   2
     Q(r) pseudized with 0 coefficients 


     atomic species   valence    mass     pseudopotential
     W                14.00   183.84000     W ( 1.00)
     Se               16.00    78.96000     Se( 1.00)

      6 Sym. Ops. (no inversion) found



   Cartesian axes

     site n.     atom                  positions (alat units)
         1        Se     tau(   1) = (  -0.0000005   0.5773506   6.1149390  )
         2        W      tau(   2) = (   0.0000000   0.0000000   6.6383232  )
         3        Se     tau(   3) = (   0.5000005   0.2886748   7.1618445  )
         4        Se     tau(   4) = (  -0.0000005   0.5773506  10.2157774  )
         5        W      tau(   5) = (   0.5000005   0.2886748  10.7390244  )
         6        Se     tau(   6) = (   0.0000000   0.0000000  11.2631098  )

     number of k points=    30  Methfessel-Paxton smearing, width (Ry)=  0.0200
                       cart. coord. in units 2pi/alat
        k(    1) = (   0.0000000   0.0000000   0.0000000), wk =   0.0078125
        k(    2) = (   0.0000000   0.0721688   0.0000000), wk =   0.0468750
        k(    3) = (   0.0000000   0.1443376   0.0000000), wk =   0.0468750
        k(    4) = (   0.0000000   0.2165064   0.0000000), wk =   0.0468750
        k(    5) = (   0.0000000   0.2886751   0.0000000), wk =   0.0468750
        k(    6) = (   0.0000000   0.3608439   0.0000000), wk =   0.0468750
        k(    7) = (   0.0000000   0.4330127   0.0000000), wk =   0.0468750
        k(    8) = (   0.0000000   0.5051815   0.0000000), wk =   0.0468750
        k(    9) = (   0.0000000  -0.5773503   0.0000000), wk =   0.0234375
        k(   10) = (   0.0625000   0.1082532   0.0000000), wk =   0.0468750
        k(   11) = (   0.0625000   0.1804220   0.0000000), wk =   0.0937500
        k(   12) = (   0.0625000   0.2525907   0.0000000), wk =   0.0937500
        k(   13) = (   0.0625000   0.3247595   0.0000000), wk =   0.0937500
        k(   14) = (   0.0625000   0.3969283   0.0000000), wk =   0.0937500
        k(   15) = (   0.0625000   0.4690971   0.0000000), wk =   0.0937500
        k(   16) = (   0.0625000   0.5412659   0.0000000), wk =   0.0937500
        k(   17) = (   0.1250000   0.2165064   0.0000000), wk =   0.0468750
        k(   18) = (   0.1250000   0.2886751   0.0000000), wk =   0.0937500
        k(   19) = (   0.1250000   0.3608439   0.0000000), wk =   0.0937500
        k(   20) = (   0.1250000   0.4330127   0.0000000), wk =   0.0937500
        k(   21) = (   0.1250000   0.5051815   0.0000000), wk =   0.0937500
        k(   22) = (   0.1250000   0.5773503   0.0000000), wk =   0.0468750
        k(   23) = (   0.1875000   0.3247595   0.0000000), wk =   0.0468750
        k(   24) = (   0.1875000   0.3969283   0.0000000), wk =   0.0937500
        k(   25) = (   0.1875000   0.4690971   0.0000000), wk =   0.0937500
        k(   26) = (   0.1875000   0.5412659   0.0000000), wk =   0.0937500
        k(   27) = (   0.2500000   0.4330127   0.0000000), wk =   0.0468750
        k(   28) = (   0.2500000   0.5051815   0.0000000), wk =   0.0937500
        k(   29) = (   0.2500000   0.5773503   0.0000000), wk =   0.0468750
        k(   30) = (   0.3125000   0.5412659   0.0000000), wk =   0.0468750

     Dense  grid:   858263 G-vectors     FFT dimensions: (  50,  50, 768)

     Smooth grid:   304337 G-vectors     FFT dimensions: (  36,  36, 540)

     Estimated max dynamical RAM per process >     350.14 MB

     Estimated total dynamical RAM >       4.10 GB

     Initial potential from superposition of free atoms

     starting charge      91.9986, renormalised to      92.0000

     negative rho (up, down):  1.568E-04 0.000E+00


     %%%%%%%%%%%%%%%%%%%%%%%%%%%%%%%%%%%%%%%%%%%%%%%%%%%%%%%%%%%%%%%%%%%%%%%%
     %                                                                      %
     % You are using vdW-DF, which was implemented by the Thonhauser group. %
     % Please cite the following two papers that made this development      %
     % possible and the two reviews that describe the various versions:     %
     %                                                                      %
     %   T. Thonhauser et al., PRL 115, 136402 (2015).                      %
     %   T. Thonhauser et al., PRB 76, 125112 (2007).                       %
     %   K. Berland et al., Rep. Prog. Phys. 78, 066501 (2015).             %
     %   D.C. Langreth et al., J. Phys.: Condens. Matter 21, 084203 (2009). %
     %                                                                      %
     % If you are calculating stress with vdW-DF, please also cite:         %
     %                                                                      %
     %   R. Sabatini et al., J. Phys.: Condens. Matter 24, 424209 (2012).   %
     %                                                                      %
     %%%%%%%%%%%%%%%%%%%%%%%%%%%%%%%%%%%%%%%%%%%%%%%%%%%%%%%%%%%%%%%%%%%%%%%%

     %%%%%%%%%%%%%%%%%%%%%%%%%%%%%%%%%%%%%%%%%%%%%%%%%%%%%%%%%%%%%%%%%%%%%%%%
     %                                                                      %
     %  vdW-DF NEWS:                                                        %
     %                                                                      %
     %  * vdW-DF3 is now available. DOI: 10.1021/acs.jctc.0c00471           %
     %    use with input_dft = 'vdW-DF3-opt1' or 'vdW-DF3-opt2'             %
     %                                                                      %
     %  * Unscreened and range-separated hybrid vdW-DF-cx functionals       %
     %    DOI: 10.1063/1.4986522 and 10.1088/1361-648X/ac2ad2               %
     %    use with input_dft = 'vdW-DF-cx0'    and 'vdW-DF-ahcx'            %
     %  * Unscreened and range-separated hybrid vdW-DF2-b86r functionals    %
     %    DOI: 10.1063/1.4986522 and DOI: 10.1103/PhysRevX.12.041003        %
     %    use with input_dft = 'vdW-DF2-br0' and 'vdW-DF2-ahbr'             %
     %                                                                      %
     %%%%%%%%%%%%%%%%%%%%%%%%%%%%%%%%%%%%%%%%%%%%%%%%%%%%%%%%%%%%%%%%%%%%%%%%


     Starting wfcs are   62 randomized atomic wfcs
     Checking if some PAW data can be deallocated... 

     total cpu time spent up to now is       30.5 secs

     per-process dynamical memory:   142.9 Mb

     Self-consistent Calculation

     iteration #  1     ecut=    80.00 Ry     beta= 0.10
     Davidson diagonalization with overlap
     ethr =  1.00E-02,  avg # of iterations =  4.0

     Threshold (ethr) on eigenvalues was too large:
     Diagonalizing with lowered threshold

     Davidson diagonalization with overlap
     ethr =  1.09E-04,  avg # of iterations =  5.1

     negative rho (up, down):  7.912E-05 0.000E+00

     total cpu time spent up to now is      141.5 secs

     total energy              =   -3113.99230018 Ry
     estimated scf accuracy    <       0.12902197 Ry

     iteration #  2     ecut=    80.00 Ry     beta= 0.10
     Davidson diagonalization with overlap
     ethr =  1.40E-04,  avg # of iterations =  1.0

     negative rho (up, down):  1.769E-05 0.000E+00

     total cpu time spent up to now is      181.2 secs

     total energy              =   -3113.94860843 Ry
     estimated scf accuracy    <       0.11806177 Ry

     iteration #  3     ecut=    80.00 Ry     beta= 0.10
     Davidson diagonalization with overlap
     ethr =  1.28E-04,  avg # of iterations =  6.0

     negative rho (up, down):  2.574E-06 0.000E+00

     total cpu time spent up to now is      234.6 secs

     total energy              =   -3113.96265135 Ry
     estimated scf accuracy    <       0.02454629 Ry

     iteration #  4     ecut=    80.00 Ry     beta= 0.10
     Davidson diagonalization with overlap
     ethr =  2.67E-05,  avg # of iterations =  2.6

     negative rho (up, down):  1.152E-08 0.000E+00

     total cpu time spent up to now is      280.8 secs

     total energy              =   -3113.95781125 Ry
     estimated scf accuracy    <       0.02231505 Ry

     iteration #  5     ecut=    80.00 Ry     beta= 0.10
     Davidson diagonalization with overlap
     ethr =  2.43E-05,  avg # of iterations =  3.1

     total cpu time spent up to now is      332.4 secs

     total energy              =   -3113.95967498 Ry
     estimated scf accuracy    <       0.00330700 Ry

     iteration #  6     ecut=    80.00 Ry     beta= 0.10
     Davidson diagonalization with overlap
     ethr =  3.59E-06,  avg # of iterations =  6.2

     negative rho (up, down):  2.459E-08 0.000E+00

     total cpu time spent up to now is      381.5 secs

     total energy              =   -3113.95891278 Ry
     estimated scf accuracy    <       0.00310636 Ry

     iteration #  7     ecut=    80.00 Ry     beta= 0.10
     Davidson diagonalization with overlap
     ethr =  3.38E-06,  avg # of iterations =  2.4

     negative rho (up, down):  3.306E-07 0.000E+00

     total cpu time spent up to now is      431.2 secs

     total energy              =   -3113.95820064 Ry
     estimated scf accuracy    <       0.00324488 Ry

     iteration #  8     ecut=    80.00 Ry     beta= 0.10
     Davidson diagonalization with overlap
     c_bands:  1 eigenvalues not converged
     ethr =  3.38E-06,  avg # of iterations =  6.0

     negative rho (up, down):  1.233E-08 0.000E+00

     total cpu time spent up to now is      482.9 secs

     total energy              =   -3113.95834386 Ry
     estimated scf accuracy    <       0.00089029 Ry

     iteration #  9     ecut=    80.00 Ry     beta= 0.10
     Davidson diagonalization with overlap
     ethr =  9.68E-07,  avg # of iterations =  2.3

     negative rho (up, down):  2.097E-08 0.000E+00

     total cpu time spent up to now is      531.1 secs

     total energy              =   -3113.95820779 Ry
     estimated scf accuracy    <       0.00097629 Ry

     iteration # 10     ecut=    80.00 Ry     beta= 0.10
     Davidson diagonalization with overlap
     c_bands:  1 eigenvalues not converged
     ethr =  9.68E-07,  avg # of iterations =  5.9

     total cpu time spent up to now is      580.3 secs

     total energy              =   -3113.95832494 Ry
     estimated scf accuracy    <       0.00038877 Ry

     iteration # 11     ecut=    80.00 Ry     beta= 0.10
     Davidson diagonalization with overlap
     ethr =  4.23E-07,  avg # of iterations =  4.2

     total cpu time spent up to now is      624.5 secs

     total energy              =   -3113.95837092 Ry
     estimated scf accuracy    <       0.00032878 Ry

     iteration # 12     ecut=    80.00 Ry     beta= 0.10
     Davidson diagonalization with overlap
     ethr =  3.57E-07,  avg # of iterations =  5.9

     negative rho (up, down):  1.206E-03 0.000E+00

     total cpu time spent up to now is      669.5 secs

     total energy              =   -3113.95838401 Ry
     estimated scf accuracy    <       0.00027474 Ry

     iteration # 13     ecut=    80.00 Ry     beta= 0.10
     Davidson diagonalization with overlap
     ethr =  2.99E-07,  avg # of iterations =  2.6

     negative rho (up, down):  1.418E-03 0.000E+00

     total cpu time spent up to now is      710.7 secs

     total energy              =   -3113.95838270 Ry
     estimated scf accuracy    <       0.00047490 Ry

     iteration # 14     ecut=    80.00 Ry     beta= 0.10
     Davidson diagonalization with overlap
     ethr =  2.99E-07,  avg # of iterations =  1.0

     negative rho (up, down):  1.437E-03 0.000E+00

     total cpu time spent up to now is      748.9 secs

     total energy              =   -3113.95831653 Ry
     estimated scf accuracy    <       0.00033029 Ry

     iteration # 15     ecut=    80.00 Ry     beta= 0.10
     Davidson diagonalization with overlap
     ethr =  2.99E-07,  avg # of iterations =  4.6

     negative rho (up, down):  3.106E-03 0.000E+00

     total cpu time spent up to now is      795.8 secs

     total energy              =   -3113.95830050 Ry
     estimated scf accuracy    <       0.00022046 Ry

     iteration # 16     ecut=    80.00 Ry     beta= 0.10
     Davidson diagonalization with overlap
     ethr =  2.40E-07,  avg # of iterations =  2.5

     negative rho (up, down):  3.555E-03 0.000E+00

     total cpu time spent up to now is      840.5 secs

     total energy              =   -3113.95826056 Ry
     estimated scf accuracy    <       0.00019830 Ry

     iteration # 17     ecut=    80.00 Ry     beta= 0.10
     Davidson diagonalization with overlap
     ethr =  2.16E-07,  avg # of iterations =  4.8

     negative rho (up, down):  4.517E-03 0.000E+00

     total cpu time spent up to now is      890.4 secs

     total energy              =   -3113.95825772 Ry
     estimated scf accuracy    <       0.00016112 Ry

     iteration # 18     ecut=    80.00 Ry     beta= 0.10
     Davidson diagonalization with overlap
     ethr =  1.75E-07,  avg # of iterations =  2.2

     negative rho (up, down):  2.090E-03 0.000E+00

     total cpu time spent up to now is      933.1 secs

     total energy              =   -3113.95827144 Ry
     estimated scf accuracy    <       0.00010170 Ry

     iteration # 19     ecut=    80.00 Ry     beta= 0.10
     Davidson diagonalization with overlap
     ethr =  1.11E-07,  avg # of iterations =  4.7

     negative rho (up, down):  2.736E-03 0.000E+00

     total cpu time spent up to now is      983.6 secs

     total energy              =   -3113.95824008 Ry
     estimated scf accuracy    <       0.00009914 Ry

     iteration # 20     ecut=    80.00 Ry     beta= 0.10
     Davidson diagonalization with overlap
     ethr =  1.08E-07,  avg # of iterations =  3.4

     negative rho (up, down):  1.560E-03 0.000E+00

     total cpu time spent up to now is     1032.9 secs

     total energy              =   -3113.95826948 Ry
     estimated scf accuracy    <       0.00005633 Ry

     iteration # 21     ecut=    80.00 Ry     beta= 0.10
     Davidson diagonalization with overlap
     ethr =  6.12E-08,  avg # of iterations =  4.3

     negative rho (up, down):  1.038E-03 0.000E+00

     total cpu time spent up to now is     1082.8 secs

     total energy              =   -3113.95828173 Ry
     estimated scf accuracy    <       0.00002676 Ry

     iteration # 22     ecut=    80.00 Ry     beta= 0.10
     Davidson diagonalization with overlap
     ethr =  2.91E-08,  avg # of iterations =  3.6

     negative rho (up, down):  1.127E-03 0.000E+00

     total cpu time spent up to now is     1133.0 secs

     total energy              =   -3113.95828118 Ry
     estimated scf accuracy    <       0.00000821 Ry

     iteration # 23     ecut=    80.00 Ry     beta= 0.10
     Davidson diagonalization with overlap
     ethr =  8.92E-09,  avg # of iterations =  2.0

     negative rho (up, down):  5.179E-04 0.000E+00

     total cpu time spent up to now is     1181.5 secs

     total energy              =   -3113.95828519 Ry
     estimated scf accuracy    <       0.00000245 Ry

     iteration # 24     ecut=    80.00 Ry     beta= 0.10
     Davidson diagonalization with overlap
     ethr =  2.67E-09,  avg # of iterations =  2.8

     negative rho (up, down):  2.723E-04 0.000E+00

     total cpu time spent up to now is     1236.4 secs

     total energy              =   -3113.95828397 Ry
     estimated scf accuracy    <       0.00000455 Ry

     iteration # 25     ecut=    80.00 Ry     beta= 0.10
     Davidson diagonalization with overlap
     ethr =  2.67E-09,  avg # of iterations =  3.7

     negative rho (up, down):  2.556E-04 0.000E+00

     total cpu time spent up to now is     1288.4 secs

     total energy              =   -3113.95828420 Ry
     estimated scf accuracy    <       0.00000060 Ry

     iteration # 26     ecut=    80.00 Ry     beta= 0.10
     Davidson diagonalization with overlap
     ethr =  6.49E-10,  avg # of iterations =  1.1

     negative rho (up, down):  2.036E-04 0.000E+00

     total cpu time spent up to now is     1328.0 secs

     total energy              =   -3113.95828423 Ry
     estimated scf accuracy    <       0.00000032 Ry

     iteration # 27     ecut=    80.00 Ry     beta= 0.10
     Davidson diagonalization with overlap
     ethr =  3.44E-10,  avg # of iterations =  3.0

     negative rho (up, down):  2.027E-04 0.000E+00

     total cpu time spent up to now is     1375.6 secs

     total energy              =   -3113.95828336 Ry
     estimated scf accuracy    <       0.00000012 Ry

     iteration # 28     ecut=    80.00 Ry     beta= 0.10
     Davidson diagonalization with overlap
     ethr =  1.31E-10,  avg # of iterations =  3.2

     negative rho (up, down):  1.537E-04 0.000E+00

     total cpu time spent up to now is     1422.0 secs

     End of self-consistent calculation

          k = 0.0000 0.0000 0.0000 ( 38015 PWs)   bands (ev):

   -74.8822 -74.8819 -48.1478 -48.1478 -48.1472 -48.1472 -48.1464 -48.1464
   -48.1460 -48.1460 -48.1168 -48.1168 -48.1165 -48.1165 -48.1155 -48.1155
   -48.1154 -48.1154 -48.1027 -48.1022 -48.1015 -48.1011 -39.0751 -39.0747
   -39.0401 -39.0401 -39.0395 -39.0394 -15.5123 -15.5093 -14.4417 -14.4405
    -6.9741  -6.9724  -3.3532  -3.3532  -3.3486  -3.3486  -3.3303  -3.3300
    -1.3226  -1.3213  -0.6891  -0.6891  -0.6871  -0.6870   0.2063   0.2063
     0.2085   0.2085   3.1954   3.4087   3.4087   3.4105   3.4105

          k = 0.0000 0.0722 0.0000 ( 37975 PWs)   bands (ev):

   -74.8818 -74.8815 -48.1477 -48.1476 -48.1472 -48.1470 -48.1464 -48.1463
   -48.1460 -48.1458 -48.1169 -48.1169 -48.1165 -48.1165 -48.1156 -48.1156
   -48.1154 -48.1153 -48.1026 -48.1022 -48.1014 -48.1011 -39.0733 -39.0729
   -39.0492 -39.0485 -39.0423 -39.0416 -15.4512 -15.4483 -14.4136 -14.4124
    -6.8916  -6.8899  -3.8404  -3.8375  -3.3185  -3.3139  -2.9213  -2.9197
    -1.3965  -1.3959  -0.9756  -0.9737  -0.9183  -0.9160   0.1946   0.1961
     0.4079   0.4097   3.0526   3.0700   3.3346   3.3670   3.3688

          k = 0.0000 0.1443 0.0000 ( 37895 PWs)   bands (ev):

   -74.8806 -74.8804 -48.1477 -48.1472 -48.1470 -48.1465 -48.1463 -48.1460
   -48.1457 -48.1453 -48.1171 -48.1170 -48.1167 -48.1165 -48.1159 -48.1157
   -48.1155 -48.1153 -48.1024 -48.1019 -48.1011 -48.1008 -39.0751 -39.0744
   -39.0681 -39.0677 -39.0483 -39.0476 -15.2722 -15.2693 -14.3317 -14.3304
    -6.6519  -6.6502  -4.3456  -4.3424  -3.2355  -3.2309  -2.6985  -2.6975
    -2.0375  -2.0355  -1.3020  -1.2994  -1.1897  -1.1893   0.1967   0.1976
     0.7120   0.7133   2.4898   2.4989   3.2908   3.2924   3.6212

          k = 0.0000 0.2165 0.0000 ( 37851 PWs)   bands (ev):

   -74.8789 -74.8787 -48.1476 -48.1473 -48.1463 -48.1462 -48.1461 -48.1457
   -48.1449 -48.1445 -48.1175 -48.1171 -48.1169 -48.1165 -48.1163 -48.1159
   -48.1157 -48.1153 -48.1020 -48.1015 -48.1007 -48.1004 -39.1134 -39.1126
   -39.0604 -39.0600 -39.0573 -39.0566 -14.9888 -14.9860 -14.2023 -14.2008
    -6.2843  -6.2826  -4.7982  -4.7948  -3.2966  -3.2943  -3.1725  -3.1681
    -2.4449  -2.4444  -1.5947  -1.5918  -1.3287  -1.3284   0.2356   0.2364
     0.9149   0.9157   2.1812   2.1883   3.2644   3.2659   4.0072

          k = 0.0000 0.2887 0.0000 ( 37919 PWs)   bands (ev):

   -74.8769 -74.8766 -48.1477 -48.1473 -48.1463 -48.1461 -48.1454 -48.1449
   -48.1441 -48.1437 -48.1180 -48.1173 -48.1171 -48.1167 -48.1165 -48.1161
   -48.1159 -48.1153 -48.1016 -48.1011 -48.1003 -48.1000 -39.1583 -39.1575
   -39.0679 -39.0672 -39.0513 -39.0509 -14.6280 -14.6253 -14.0342 -14.0324
    -5.8935  -5.8915  -5.1148  -5.1116  -4.3546  -4.3520  -3.2181  -3.2139
    -2.6165  -2.6164  -1.6925  -1.6895  -1.6333  -1.6328   0.3937   0.3947
     1.0198   1.0205   2.3217   2.3286   3.3096   3.3112   4.4872

          k = 0.0000 0.3608 0.0000 ( 37933 PWs)   bands (ev):

   -74.8749 -74.8746 -48.1478 -48.1472 -48.1465 -48.1459 -48.1445 -48.1440
   -48.1432 -48.1428 -48.1184 -48.1175 -48.1173 -48.1172 -48.1166 -48.1163
   -48.1161 -48.1154 -48.1011 -48.1006 -48.0999 -48.0995 -39.2028 -39.2020
   -39.0785 -39.0778 -39.0421 -39.0417 -14.2434 -14.2408 -13.8291 -13.8272
    -5.9050  -5.9023  -5.3312  -5.3288  -4.9136  -4.9113  -3.3672  -3.3632
    -2.9634  -2.9634  -1.9378  -1.9373  -1.6321  -1.6291   0.7334   0.7342
     1.1132   1.1140   2.7661   2.7729   3.3834   3.3852   4.9774

          k = 0.0000 0.4330 0.0000 ( 37998 PWs)   bands (ev):

   -74.8732 -74.8729 -48.1479 -48.1471 -48.1466 -48.1459 -48.1437 -48.1433
   -48.1424 -48.1421 -48.1188 -48.1176 -48.1176 -48.1175 -48.1166 -48.1164
   -48.1163 -48.1154 -48.1008 -48.1003 -48.0995 -48.0992 -39.2403 -39.2395
   -39.0875 -39.0868 -39.0344 -39.0340 -13.9389 -13.9362 -13.5662 -13.5641
    -6.5195  -6.5166  -5.6005  -5.5982  -4.6912  -4.6894  -3.5318  -3.5279
    -3.2566  -3.2562  -2.1251  -2.1247  -1.5368  -1.5340   1.1990   1.1995
     1.2521   1.2534   3.2712   3.2760   3.4452   3.4472   4.5946

          k = 0.0000 0.5052 0.0000 ( 38048 PWs)   bands (ev):

   -74.8721 -74.8718 -48.1480 -48.1470 -48.1467 -48.1458 -48.1432 -48.1428
   -48.1419 -48.1416 -48.1191 -48.1178 -48.1177 -48.1176 -48.1167 -48.1165
   -48.1165 -48.1155 -48.1005 -48.1000 -48.0993 -48.0989 -39.2652 -39.2644
   -39.0935 -39.0928 -39.0292 -39.0288 -13.7773 -13.7746 -13.2978 -13.2958
    -7.0835  -7.0805  -5.6182  -5.6163  -4.7668  -4.7652  -3.6485  -3.6447
    -3.1896  -3.1887  -2.2432  -2.2429  -1.4755  -1.4730   1.4016   1.4033
     1.6703   1.6706   3.4611   3.4627   3.4816   3.4837   4.5583

          k = 0.0000-0.5774 0.0000 ( 38024 PWs)   bands (ev):

   -74.8717 -74.8714 -48.1480 -48.1470 -48.1468 -48.1458 -48.1431 -48.1426
   -48.1417 -48.1415 -48.1192 -48.1179 -48.1178 -48.1177 -48.1167 -48.1165
   -48.1165 -48.1155 -48.1004 -48.0999 -48.0992 -48.0988 -39.2739 -39.2731
   -39.0956 -39.0949 -39.0274 -39.0270 -13.7276 -13.7247 -13.1834 -13.1815
    -7.2963  -7.2933  -5.5829  -5.5813  -4.8890  -4.8873  -3.6899  -3.6860
    -3.0739  -3.0728  -2.2962  -2.2959  -1.4565  -1.4541   1.4683   1.4701
     1.8931   1.8934   3.4814   3.4818   3.4931   3.4953   4.2166

          k = 0.0625 0.1083 0.0000 ( 37895 PWs)   bands (ev):

   -74.8810 -74.8807 -48.1477 -48.1472 -48.1472 -48.1467 -48.1463 -48.1460
   -48.1459 -48.1455 -48.1171 -48.1169 -48.1166 -48.1165 -48.1158 -48.1157
   -48.1154 -48.1153 -48.1024 -48.1020 -48.1012 -48.1009 -39.0699 -39.0694
   -39.0664 -39.0657 -39.0466 -39.0459 -15.3311 -15.3282 -14.3587 -14.3573
    -6.7302  -6.7284  -4.2109  -4.2077  -3.2674  -3.2628  -2.7204  -2.7193
    -1.7778  -1.7762  -1.3108  -1.3082  -1.0998  -1.0993   0.2651   0.2662
     0.5603   0.5617   2.7070   2.7183   3.2258   3.2296   3.5414

          k = 0.0625 0.1804 0.0000 ( 37885 PWs)   bands (ev):

   -74.8796 -74.8793 -48.1476 -48.1472 -48.1466 -48.1462 -48.1461 -48.1460
   -48.1453 -48.1448 -48.1174 -48.1171 -48.1167 -48.1165 -48.1161 -48.1158
   -48.1156 -48.1154 -48.1021 -48.1017 -48.1009 -48.1006 -39.0977 -39.0970
   -39.0635 -39.0631 -39.0547 -39.0540 -15.0995 -15.0966 -14.2531 -14.2517
    -6.4223  -6.4206  -4.6430  -4.6396  -3.2589  -3.2545  -2.8017  -2.8001
    -2.4660  -2.4644  -1.6536  -1.6512  -1.1337  -1.1334   0.3265   0.3273
     0.6673   0.6682   2.4249   2.4333   3.0802   3.0822   3.8652

          k = 0.0625 0.2526 0.0000 ( 37916 PWs)   bands (ev):

   -74.8777 -74.8775 -48.1476 -48.1472 -48.1462 -48.1460 -48.1458 -48.1453
   -48.1445 -48.1441 -48.1178 -48.1172 -48.1170 -48.1166 -48.1166 -48.1160
   -48.1158 -48.1154 -48.1017 -48.1013 -48.1005 -48.1002 -39.1384 -39.1377
   -39.0658 -39.0651 -39.0548 -39.0544 -14.7755 -14.7728 -14.1053 -14.1036
    -6.0166  -6.0148  -5.0165  -5.0131  -3.8996  -3.8968  -3.1974  -3.1938
    -2.5963  -2.5953  -1.9142  -1.9122  -1.2043  -1.2035   0.2834   0.2840
     0.8756   0.8762   2.3587   2.3650   3.0902   3.0932   4.2938

          k = 0.0625 0.3248 0.0000 ( 37964 PWs)   bands (ev):

   -74.8757 -74.8754 -48.1477 -48.1471 -48.1463 -48.1459 -48.1449 -48.1444
   -48.1436 -48.1432 -48.1183 -48.1174 -48.1172 -48.1170 -48.1166 -48.1161
   -48.1160 -48.1154 -48.1013 -48.1008 -48.1001 -48.0997 -39.1820 -39.1813
   -39.0774 -39.0766 -39.0458 -39.0454 -14.3960 -14.3933 -13.9230 -13.9212
    -5.7454  -5.7430  -5.1863  -5.1836  -4.8228  -4.8200  -3.4304  -3.4271
    -2.7102  -2.7094  -2.2436  -2.2417  -1.2622  -1.2608   0.3971   0.3976
     1.1312   1.1317   2.5219   2.5264   3.2293   3.2336   4.8140

          k = 0.0625 0.3969 0.0000 ( 37981 PWs)   bands (ev):

   -74.8739 -74.8736 -48.1478 -48.1470 -48.1465 -48.1458 -48.1441 -48.1437
   -48.1428 -48.1425 -48.1186 -48.1176 -48.1174 -48.1174 -48.1167 -48.1164
   -48.1162 -48.1155 -48.1009 -48.1004 -48.0997 -48.0993 -39.2221 -39.2213
   -39.0881 -39.0874 -39.0373 -39.0369 -14.0384 -14.0358 -13.6968 -13.6947
    -6.1325  -6.1297  -5.5093  -5.5068  -4.7661  -4.7641  -3.6793  -3.6763
    -2.9772  -2.9762  -2.4721  -2.4704  -1.2568  -1.2552   0.6898   0.6900
     1.4006   1.4012   2.8062   2.8087   3.4531   3.4580   4.9724

          k = 0.0625 0.4691 0.0000 ( 38057 PWs)   bands (ev):

   -74.8724 -74.8722 -48.1479 -48.1469 -48.1466 -48.1457 -48.1435 -48.1431
   -48.1422 -48.1419 -48.1190 -48.1178 -48.1177 -48.1175 -48.1167 -48.1166
   -48.1163 -48.1155 -48.1006 -48.1001 -48.0994 -48.0990 -39.2525 -39.2518
   -39.0963 -39.0956 -39.0309 -39.0305 -13.8107 -13.8080 -13.4169 -13.4148
    -6.7850  -6.7821  -5.6132  -5.6110  -4.6518  -4.6501  -3.7934  -3.7903
    -3.1452  -3.1438  -2.5688  -2.5674  -1.2620  -1.2605   1.0655   1.0661
     1.6727   1.6733   3.0279   3.0295   3.6243   3.6271   4.6896

          k = 0.0625 0.5413 0.0000 ( 38034 PWs)   bands (ev):

   -74.8717 -74.8714 -48.1479 -48.1469 -48.1466 -48.1456 -48.1432 -48.1428
   -48.1418 -48.1416 -48.1191 -48.1179 -48.1179 -48.1175 -48.1167 -48.1167
   -48.1163 -48.1155 -48.1004 -48.1000 -48.0992 -48.0988 -39.2689 -39.2682
   -39.1007 -39.1000 -39.0274 -39.0270 -13.7112 -13.7084 -13.2104 -13.2084
    -7.1842  -7.1812  -5.5876  -5.5858  -4.8098  -4.8081  -3.8031  -3.7996
    -3.0681  -3.0668  -2.6191  -2.6180  -1.2890  -1.2876   1.3704   1.3718
     1.8451   1.8453   3.1814   3.1831   3.5390   3.5398   4.5454

          k = 0.1250 0.2165 0.0000 ( 37933 PWs)   bands (ev):

   -74.8780 -74.8777 -48.1475 -48.1472 -48.1462 -48.1460 -48.1460 -48.1455
   -48.1447 -48.1443 -48.1178 -48.1172 -48.1168 -48.1167 -48.1165 -48.1159
   -48.1156 -48.1155 -48.1018 -48.1013 -48.1006 -48.1002 -39.1301 -39.1294
   -39.0665 -39.0658 -39.0559 -39.0555 -14.8260 -14.8233 -14.1297 -14.1281
    -6.0612  -6.0594  -4.9684  -4.9650  -3.7338  -3.7305  -2.9747  -2.9734
    -2.8963  -2.8929  -1.9100  -1.9084  -1.0330  -1.0327   0.2818   0.2822
     0.7087   0.7096   2.6886   2.6950   2.6951   2.7002   4.2312

          k = 0.1250 0.2887 0.0000 ( 37936 PWs)   bands (ev):

   -74.8761 -74.8759 -48.1475 -48.1470 -48.1462 -48.1458 -48.1452 -48.1448
   -48.1439 -48.1436 -48.1182 -48.1173 -48.1171 -48.1169 -48.1168 -48.1160
   -48.1159 -48.1156 -48.1014 -48.1009 -48.1002 -48.0998 -39.1674 -39.1666
   -39.0802 -39.0795 -39.0477 -39.0473 -14.4769 -14.4743 -13.9715 -13.9697
    -5.6462  -5.6443  -5.2261  -5.2228  -4.5418  -4.5389  -3.4364  -3.4342
    -2.9727  -2.9699  -2.1948  -2.1937  -0.9212  -0.9205   0.1009   0.1012
     1.0912   1.0919   2.4005   2.4017   3.0534   3.0630   4.7043

          k = 0.1250 0.3608 0.0000 ( 38000 PWs)   bands (ev):

   -74.8743 -74.8740 -48.1475 -48.1468 -48.1462 -48.1456 -48.1445 -48.1441
   -48.1432 -48.1429 -48.1185 -48.1175 -48.1173 -48.1173 -48.1168 -48.1162
   -48.1161 -48.1157 -48.1010 -48.1006 -48.0998 -48.0994 -39.2041 -39.2034
   -39.0944 -39.0936 -39.0393 -39.0389 -14.1020 -14.0994 -13.7838 -13.7818
    -5.7180  -5.7152  -5.3674  -5.3646  -4.8986  -4.8963  -3.8243  -3.8219
    -3.0764  -3.0740  -2.6305  -2.6295  -0.8436  -0.8427   0.2115   0.2118
     1.4771   1.4777   2.3205   2.3215   3.4235   3.4317   5.2554

          k = 0.1250 0.4330 0.0000 ( 38048 PWs)   bands (ev):

   -74.8727 -74.8724 -48.1475 -48.1466 -48.1462 -48.1454 -48.1439 -48.1435
   -48.1426 -48.1423 -48.1188 -48.1178 -48.1176 -48.1174 -48.1169 -48.1165
   -48.1161 -48.1157 -48.1007 -48.1002 -48.0994 -48.0991 -39.2350 -39.2342
   -39.1064 -39.1057 -39.0322 -39.0318 -13.8092 -13.8066 -13.5396 -13.5375
    -6.3508  -6.3480  -5.5596  -5.5570  -4.5549  -4.5531  -4.0745  -4.0719
    -3.2061  -3.2039  -3.0007  -2.9995  -0.8644  -0.8637   0.5642   0.5644
     1.7624   1.7633   2.4243   2.4255   3.7232   3.7278   5.1495

          k = 0.1250 0.5052 0.0000 ( 38027 PWs)   bands (ev):

   -74.8717 -74.8714 -48.1475 -48.1465 -48.1462 -48.1453 -48.1435 -48.1431
   -48.1422 -48.1420 -48.1190 -48.1180 -48.1177 -48.1174 -48.1169 -48.1168
   -48.1162 -48.1158 -48.1004 -48.1000 -48.0992 -48.0989 -39.2555 -39.2547
   -39.1145 -39.1138 -39.0274 -39.0270 -13.6632 -13.6605 -13.2833 -13.2812
    -6.8714  -6.8685  -5.5829  -5.5807  -4.6165  -4.6148  -4.0405  -4.0377
    -3.2952  -3.2933  -3.1046  -3.1032  -0.9526  -0.9520   1.0185   1.0191
     1.8436   1.8445   2.6208   2.6221   3.7177   3.7195   5.0421

          k = 0.1250 0.5774 0.0000 ( 37968 PWs)   bands (ev):

   -74.8713 -74.8710 -48.1475 -48.1465 -48.1462 -48.1452 -48.1433 -48.1430
   -48.1420 -48.1418 -48.1190 -48.1181 -48.1178 -48.1174 -48.1169 -48.1169
   -48.1162 -48.1158 -48.1003 -48.0999 -48.0991 -48.0988 -39.2626 -39.2618
   -39.1174 -39.1166 -39.0257 -39.0253 -13.6184 -13.6156 -13.1758 -13.1737
    -7.0645  -7.0615  -5.5668  -5.5648  -4.7222  -4.7204  -4.0190  -4.0161
    -3.3150  -3.3133  -3.0731  -3.0717  -1.0043  -1.0038   1.3118   1.3129
     1.7527   1.7532   2.7571   2.7585   3.5874   3.5883   4.9883

          k = 0.1875 0.3248 0.0000 ( 37987 PWs)   bands (ev):

   -74.8744 -74.8742 -48.1473 -48.1467 -48.1460 -48.1455 -48.1447 -48.1443
   -48.1434 -48.1431 -48.1185 -48.1174 -48.1173 -48.1172 -48.1170 -48.1161
   -48.1160 -48.1159 -48.1010 -48.1006 -48.0998 -48.0995 -39.1960 -39.1953
   -39.0984 -39.0977 -39.0400 -39.0396 -14.1240 -14.1214 -13.8141 -13.8120
    -5.4143  -5.4113  -5.3930  -5.3905  -4.9757  -4.9732  -3.8258  -3.8241
    -3.3831  -3.3799  -2.5091  -2.5083  -0.5903  -0.5896  -0.0574  -0.0571
     1.4837   1.4842   2.1267   2.1273   3.4155   3.4248   5.2171

          k = 0.1875 0.3969 0.0000 ( 38014 PWs)   bands (ev):

   -74.8729 -74.8726 -48.1472 -48.1463 -48.1459 -48.1451 -48.1443 -48.1439
   -48.1430 -48.1427 -48.1187 -48.1176 -48.1175 -48.1173 -48.1171 -48.1163
   -48.1161 -48.1160 -48.1007 -48.1003 -48.0994 -48.0992 -39.2207 -39.2199
   -39.1168 -39.1161 -39.0329 -39.0325 -13.7812 -13.7787 -13.6342 -13.6319
    -5.9333  -5.9305  -5.5129  -5.5098  -4.6017  -4.5998  -4.1790  -4.1770
    -3.7273  -3.7245  -2.9126  -2.9118  -0.4257  -0.4253   0.0870   0.0872
     1.7981   1.7987   2.0421   2.0427   3.7685   3.7745   5.6573

          k = 0.1875 0.4691 0.0000 ( 38010 PWs)   bands (ev):

   -74.8717 -74.8714 -48.1470 -48.1461 -48.1457 -48.1449 -48.1439 -48.1435
   -48.1426 -48.1424 -48.1189 -48.1179 -48.1176 -48.1174 -48.1172 -48.1167
   -48.1161 -48.1160 -48.1004 -48.1000 -48.0992 -48.0989 -39.2386 -39.2378
   -39.1317 -39.1310 -39.0274 -39.0270 -13.5876 -13.5850 -13.3830 -13.3807
    -6.4480  -6.4452  -5.5635  -5.5608  -4.4315  -4.4294  -4.2331  -4.2311
    -3.9788  -3.9765  -3.2104  -3.2093  -0.5210  -0.5209   0.5276   0.5278
     1.8559   1.8568   2.2092   2.2098   3.9064   3.9091   5.3089

          k = 0.1875 0.5413 0.0000 ( 38010 PWs)   bands (ev):

   -74.8710 -74.8707 -48.1469 -48.1459 -48.1457 -48.1447 -48.1437 -48.1434
   -48.1424 -48.1422 -48.1189 -48.1182 -48.1176 -48.1174 -48.1172 -48.1169
   -48.1161 -48.1160 -48.1003 -48.0999 -48.0990 -48.0988 -39.2480 -39.2472
   -39.1401 -39.1393 -39.0245 -39.0241 -13.5091 -13.5064 -13.1994 -13.1971
    -6.7476  -6.7447  -5.5712  -5.5687  -4.5630  -4.5607  -4.1695  -4.1673
    -4.0569  -4.0552  -3.2634  -3.2621  -0.6297  -0.6296   0.9971   0.9975
     1.6246   1.6257   2.4861   2.4869   3.7034   3.7050   5.2897

          k = 0.2500 0.4330 0.0000 ( 38031 PWs)   bands (ev):

   -74.8717 -74.8714 -48.1468 -48.1458 -48.1455 -48.1446 -48.1442 -48.1437
   -48.1429 -48.1425 -48.1188 -48.1178 -48.1176 -48.1175 -48.1172 -48.1165
   -48.1163 -48.1160 -48.1004 -48.1000 -48.0992 -48.0989 -39.2297 -39.2290
   -39.1407 -39.1400 -39.0274 -39.0271 -13.5013 -13.4991 -13.4790 -13.4763
    -6.1941  -6.1913  -5.5606  -5.5575  -4.4134  -4.4112  -4.3788  -4.3768
    -4.1699  -4.1677  -3.2815  -3.2806  -0.0354  -0.0348   0.0128   0.0135
     1.8443   1.8447   2.0836   2.0839   3.9882   3.9913   5.4297

          k = 0.2500 0.5052 0.0000 ( 38019 PWs)   bands (ev):

   -74.8709 -74.8706 -48.1464 -48.1455 -48.1452 -48.1442 -48.1442 -48.1438
   -48.1428 -48.1426 -48.1187 -48.1180 -48.1177 -48.1175 -48.1172 -48.1168
   -48.1165 -48.1160 -48.1002 -48.0999 -48.0990 -48.0988 -39.2320 -39.2312
   -39.1605 -39.1598 -39.0238 -39.0234 -13.4021 -13.3996 -13.2646 -13.2622
    -6.3654  -6.3626  -5.5904  -5.5875  -4.8070  -4.8042  -4.3751  -4.3735
    -4.0453  -4.0436  -3.5445  -3.5434  -0.1476  -0.1474   0.4479   0.4480
     1.5642   1.5653   2.4203   2.4207   3.8678   3.8697   5.1185

          k = 0.2500 0.5774 0.0000 ( 38023 PWs)   bands (ev):

   -74.8706 -74.8703 -48.1463 -48.1453 -48.1450 -48.1442 -48.1440 -48.1438
   -48.1428 -48.1427 -48.1187 -48.1183 -48.1177 -48.1174 -48.1172 -48.1170
   -48.1165 -48.1160 -48.1002 -48.0998 -48.0989 -48.0988 -39.2315 -39.2308
   -39.1687 -39.1679 -39.0225 -39.0222 -13.3669 -13.3643 -13.1847 -13.1823
    -6.4234  -6.4206  -5.5975  -5.5947  -4.9751  -4.9723  -4.2102  -4.2087
    -4.2070  -4.2055  -3.5619  -3.5606  -0.2086  -0.2084   0.8053   0.8056
     1.2276   1.2292   2.7052   2.7058   3.6207   3.6222   5.0432

          k = 0.3125 0.5413 0.0000 ( 38095 PWs)   bands (ev):

   -74.8704 -74.8702 -48.1459 -48.1449 -48.1447 -48.1445 -48.1441 -48.1436
   -48.1432 -48.1430 -48.1185 -48.1182 -48.1180 -48.1173 -48.1172 -48.1169
   -48.1168 -48.1160 -48.1002 -48.0998 -48.0989 -48.0988 -39.2167 -39.2159
   -39.1879 -39.1871 -39.0218 -39.0215 -13.2796 -13.2772 -13.2176 -13.2150
    -6.1130  -6.1104  -5.6272  -5.6242  -5.4133  -5.4104  -4.2201  -4.2187
    -3.9246  -3.9231  -3.8935  -3.8924   0.2316   0.2323   0.4116   0.4117
     1.0794   1.0811   2.9099   2.9107   3.5416   3.5430   4.8460

     the Fermi energy is    -0.0062 ev

!    total energy              =   -3113.95828523 Ry
     total all-electron energy =    -83998.682849 Ry
     estimated scf accuracy    <       0.00000009 Ry
     smearing contrib. (-TS)   =       0.00046660 Ry
     internal energy E=F+TS    =   -3113.95875183 Ry

     The total energy is F=E-TS. E is the sum of the following terms:
     one-electron contribution =  -16762.16058375 Ry
     hartree contribution      =    8368.24158068 Ry
     xc contribution           =    -193.57599040 Ry
     ewald contribution        =    7234.85031037 Ry
     one-center paw contrib.   =   -1761.31406874 Ry

     convergence has been achieved in  28 iterations

     Writing all to output data dir ./tmp/cleave_035/wse2_cleave_035.save/ :
     XML data file, charge density, pseudopotentials, collected wavefunctions

     init_run     :     29.83s CPU     30.26s WALL (       1 calls)
     electrons    :   1370.36s CPU   1391.55s WALL (       1 calls)

     Called by init_run:
     wfcinit      :     16.74s CPU     16.85s WALL (       1 calls)
     potinit      :     11.86s CPU     11.95s WALL (       1 calls)
     hinit0       :      0.11s CPU      0.12s WALL (       1 calls)

     Called by electrons:
     c_bands      :   1160.80s CPU   1170.31s WALL (      29 calls)
     sum_band     :    150.78s CPU    156.60s WALL (      29 calls)
     v_of_rho     :     34.83s CPU     36.26s WALL (      29 calls)
     newd         :     20.17s CPU     24.69s WALL (      29 calls)
     PAW_pot      :      2.89s CPU      2.92s WALL (      29 calls)
     mix_rho      :     13.17s CPU     13.30s WALL (      29 calls)
     vdW_kernel   :     10.87s CPU     10.88s WALL (       1 calls)

     Called by c_bands:
     init_us_2    :      6.32s CPU      6.33s WALL (    1770 calls)
     cegterg      :   1140.94s CPU   1150.06s WALL (     870 calls)

     Called by *egterg:
     cdiaghg      :     14.28s CPU     14.31s WALL (    3964 calls)
     h_psi        :    488.66s CPU    491.66s WALL (    4024 calls)
     s_psi        :    131.93s CPU    132.03s WALL (    4024 calls)
     g_psi        :      1.49s CPU      1.49s WALL (    3124 calls)

     Called by h_psi:
     h_psi:calbec :    170.19s CPU    171.60s WALL (    4024 calls)
     vloc_psi     :    170.24s CPU    171.67s WALL (    4024 calls)
                                        0.00s GPU  (    4024 calls)
     add_vuspsi   :    146.16s CPU    146.31s WALL (    4024 calls)

     General routines
     calbec       :    246.31s CPU    248.34s WALL (    4894 calls)
     fft          :     14.66s CPU     14.83s WALL (    1826 calls)
     ffts         :      5.07s CPU      5.13s WALL (    3379 calls)
     fftw         :    183.98s CPU    185.59s WALL (  260966 calls)
     interpolate  :      0.29s CPU      0.29s WALL (      29 calls)

     Parallel routines

     PWSCF        :  23m20.96s CPU  23m42.89s WALL


   This run was terminated on:  22: 6:33  18Jun2026            

=------------------------------------------------------------------------------=
   JOB DONE.
=------------------------------------------------------------------------------=
Note: The following floating-point exceptions are signalling: IEEE_UNDERFLOW_FLAG IEEE_DENORMAL
Note: The following floating-point exceptions are signalling: IEEE_UNDERFLOW_FLAG IEEE_DENORMAL
Note: The following floating-point exceptions are signalling: IEEE_UNDERFLOW_FLAG IEEE_DENORMAL
Note: The following floating-point exceptions are signalling: IEEE_UNDERFLOW_FLAG IEEE_DENORMAL
Note: The following floating-point exceptions are signalling: IEEE_UNDERFLOW_FLAG IEEE_DENORMAL
Note: The following floating-point exceptions are signalling: IEEE_UNDERFLOW_FLAG IEEE_DENORMAL
Note: The following floating-point exceptions are signalling: IEEE_UNDERFLOW_FLAG IEEE_DENORMAL
Note: The following floating-point exceptions are signalling: IEEE_UNDERFLOW_FLAG IEEE_DENORMAL
Note: The following floating-point exceptions are signalling: IEEE_UNDERFLOW_FLAG IEEE_DENORMAL
Note: The following floating-point exceptions are signalling: IEEE_UNDERFLOW_FLAG IEEE_DENORMAL
Note: The following floating-point exceptions are signalling: IEEE_UNDERFLOW_FLAG IEEE_DENORMAL
Note: The following floating-point exceptions are signalling: IEEE_UNDERFLOW_FLAG IEEE_DENORMAL
