
     Program PWSCF v.7.5 starts on 18Jun2026 at 15:41:50 

     This program is part of the open-source Quantum ESPRESSO suite
     for quantum simulation of materials; please cite
         "P. Giannozzi et al., J. Phys.:Condens. Matter 21 395502 (2009);
         "P. Giannozzi et al., J. Phys.:Condens. Matter 29 465901 (2017);
         "P. Giannozzi et al., J. Chem. Phys. 152 154105 (2020);
          URL http://www.quantum-espresso.org", 
     in publications or presentations arising from this work. More details at
     http://www.quantum-espresso.org/quote

     Parallel version (MPI), running on    12 processors

     MPI processes distributed on     1 nodes
     30111 MiB available memory on the printing compute node when the environment starts

     Waiting for input...
     Reading input from standard input

     Current dimensions of program PWSCF are:
     Max number of different atomic species (ntypx) = 10
     Max number of k-points (npk) =  40000
     Max angular momentum in pseudopotentials (lmaxx) =  4
     file W.pbe-spn-kjpaw_psl.1.0.0.UPF: wavefunction(s)  6S 5P 5D renormalized
     file Se.pbe-dn-kjpaw_psl.1.0.0.UPF: wavefunction(s)  4S 4P 3D renormalized

     IMPORTANT: XC functional enforced from input :
     Exchange-correlation= VDW-DF2-B86R
                           (   1   4  26   0   2   0   0)
     Any further DFT definition will be discarded
     Please, verify this is what you really want


     R & G space division:  proc/nbgrp/npool/nimage =      12
     Subspace diagonalization in iterative solution of the eigenvalue problem:
     a serial algorithm will be used


     Parallelization info
     --------------------
     sticks:   dense  smooth     PW     G-vecs:    dense   smooth      PW
     Min         139      70     20                71489    25322    3895
     Max         140      71     22                71558    25395    3945
     Sum        1675     847    253               858263   304337   46813

     Using Slab Decomposition



     bravais-lattice index     =            4
     lattice parameter (alat)  =       6.1983  a.u.
     unit-cell volume          =    3143.7277 (a.u.)^3
     number of atoms/cell      =            6
     number of atomic types    =            2
     number of electrons       =        92.00
     number of Kohn-Sham states=           55
     kinetic-energy cutoff     =      80.0000  Ry
     charge density cutoff     =     640.0000  Ry
     scf convergence threshold =      1.0E-07
     mixing beta               =       0.1000
     number of iterations used =           12  local-TF  mixing
     Exchange-correlation= VDW-DF2-B86R
                           (   1   4  26   0   2   0   0)

     celldm(1)=   6.198302  celldm(2)=   0.000000  celldm(3)=  15.243902
     celldm(4)=   0.000000  celldm(5)=   0.000000  celldm(6)=   0.000000

     crystal axes: (cart. coord. in units of alat)
               a(1) = (   1.000000   0.000000   0.000000 )  
               a(2) = (  -0.500000   0.866025   0.000000 )  
               a(3) = (   0.000000   0.000000  15.243902 )  

     reciprocal axes: (cart. coord. in units 2 pi/alat)
               b(1) = (  1.000000  0.577350 -0.000000 )  
               b(2) = (  0.000000  1.154701  0.000000 )  
               b(3) = (  0.000000 -0.000000  0.065600 )  


     PseudoPot. # 1 for W  read from file:
     ./pseudo/W.pbe-spn-kjpaw_psl.1.0.0.UPF
     MD5 check sum: 03c3df5b60893f488392c7401945500a
     Pseudo is Projector augmented-wave + core cor, Zval = 14.0
     Generated using &quot;atomic&quot; code by A. Dal Corso  v.6.2.2
     Shape of augmentation charge: PSQ
     Using radial grid of 1273 points,  6 beta functions with: 
                l(1) =   0
                l(2) =   0
                l(3) =   1
                l(4) =   1
                l(5) =   2
                l(6) =   2
     Q(r) pseudized with 0 coefficients 


     PseudoPot. # 2 for Se read from file:
     ./pseudo/Se.pbe-dn-kjpaw_psl.1.0.0.UPF
     MD5 check sum: ac240dd2bae32a30e0bf3a38df9c8785
     Pseudo is Projector augmented-wave + core cor, Zval = 16.0
     Generated using &quot;atomic&quot; code by A. Dal Corso  v.6.3
     Shape of augmentation charge: PSQ
     Using radial grid of 1211 points,  6 beta functions with: 
                l(1) =   0
                l(2) =   0
                l(3) =   1
                l(4) =   1
                l(5) =   2
                l(6) =   2
     Q(r) pseudized with 0 coefficients 


     atomic species   valence    mass     pseudopotential
     W                14.00   183.84000     W ( 1.00)
     Se               16.00    78.96000     Se( 1.00)

      6 Sym. Ops. (no inversion) found



   Cartesian axes

     site n.     atom                  positions (alat units)
         1        Se     tau(   1) = (  -0.0000005   0.5773506   6.1149390  )
         2        W      tau(   2) = (   0.0000000   0.0000000   6.6383232  )
         3        Se     tau(   3) = (   0.5000005   0.2886748   7.1618445  )
         4        Se     tau(   4) = (  -0.0000005   0.5773506   8.9962652  )
         5        W      tau(   5) = (   0.5000005   0.2886748   9.5195122  )
         6        Se     tau(   6) = (   0.0000000   0.0000000  10.0435976  )

     number of k points=    30  Methfessel-Paxton smearing, width (Ry)=  0.0200
                       cart. coord. in units 2pi/alat
        k(    1) = (   0.0000000   0.0000000   0.0000000), wk =   0.0078125
        k(    2) = (   0.0000000   0.0721688   0.0000000), wk =   0.0468750
        k(    3) = (   0.0000000   0.1443376   0.0000000), wk =   0.0468750
        k(    4) = (   0.0000000   0.2165064   0.0000000), wk =   0.0468750
        k(    5) = (   0.0000000   0.2886751   0.0000000), wk =   0.0468750
        k(    6) = (   0.0000000   0.3608439   0.0000000), wk =   0.0468750
        k(    7) = (   0.0000000   0.4330127   0.0000000), wk =   0.0468750
        k(    8) = (   0.0000000   0.5051815   0.0000000), wk =   0.0468750
        k(    9) = (   0.0000000  -0.5773503   0.0000000), wk =   0.0234375
        k(   10) = (   0.0625000   0.1082532   0.0000000), wk =   0.0468750
        k(   11) = (   0.0625000   0.1804220   0.0000000), wk =   0.0937500
        k(   12) = (   0.0625000   0.2525907   0.0000000), wk =   0.0937500
        k(   13) = (   0.0625000   0.3247595   0.0000000), wk =   0.0937500
        k(   14) = (   0.0625000   0.3969283   0.0000000), wk =   0.0937500
        k(   15) = (   0.0625000   0.4690971   0.0000000), wk =   0.0937500
        k(   16) = (   0.0625000   0.5412659   0.0000000), wk =   0.0937500
        k(   17) = (   0.1250000   0.2165064   0.0000000), wk =   0.0468750
        k(   18) = (   0.1250000   0.2886751   0.0000000), wk =   0.0937500
        k(   19) = (   0.1250000   0.3608439   0.0000000), wk =   0.0937500
        k(   20) = (   0.1250000   0.4330127   0.0000000), wk =   0.0937500
        k(   21) = (   0.1250000   0.5051815   0.0000000), wk =   0.0937500
        k(   22) = (   0.1250000   0.5773503   0.0000000), wk =   0.0468750
        k(   23) = (   0.1875000   0.3247595   0.0000000), wk =   0.0468750
        k(   24) = (   0.1875000   0.3969283   0.0000000), wk =   0.0937500
        k(   25) = (   0.1875000   0.4690971   0.0000000), wk =   0.0937500
        k(   26) = (   0.1875000   0.5412659   0.0000000), wk =   0.0937500
        k(   27) = (   0.2500000   0.4330127   0.0000000), wk =   0.0468750
        k(   28) = (   0.2500000   0.5051815   0.0000000), wk =   0.0937500
        k(   29) = (   0.2500000   0.5773503   0.0000000), wk =   0.0468750
        k(   30) = (   0.3125000   0.5412659   0.0000000), wk =   0.0468750

     Dense  grid:   858263 G-vectors     FFT dimensions: (  50,  50, 768)

     Smooth grid:   304337 G-vectors     FFT dimensions: (  36,  36, 540)

     Estimated max dynamical RAM per process >     350.14 MB

     Estimated total dynamical RAM >       4.10 GB

     Initial potential from superposition of free atoms

     starting charge      91.9986, renormalised to      92.0000

     negative rho (up, down):  1.699E-04 0.000E+00


     %%%%%%%%%%%%%%%%%%%%%%%%%%%%%%%%%%%%%%%%%%%%%%%%%%%%%%%%%%%%%%%%%%%%%%%%
     %                                                                      %
     % You are using vdW-DF, which was implemented by the Thonhauser group. %
     % Please cite the following two papers that made this development      %
     % possible and the two reviews that describe the various versions:     %
     %                                                                      %
     %   T. Thonhauser et al., PRL 115, 136402 (2015).                      %
     %   T. Thonhauser et al., PRB 76, 125112 (2007).                       %
     %   K. Berland et al., Rep. Prog. Phys. 78, 066501 (2015).             %
     %   D.C. Langreth et al., J. Phys.: Condens. Matter 21, 084203 (2009). %
     %                                                                      %
     % If you are calculating stress with vdW-DF, please also cite:         %
     %                                                                      %
     %   R. Sabatini et al., J. Phys.: Condens. Matter 24, 424209 (2012).   %
     %                                                                      %
     %%%%%%%%%%%%%%%%%%%%%%%%%%%%%%%%%%%%%%%%%%%%%%%%%%%%%%%%%%%%%%%%%%%%%%%%

     %%%%%%%%%%%%%%%%%%%%%%%%%%%%%%%%%%%%%%%%%%%%%%%%%%%%%%%%%%%%%%%%%%%%%%%%
     %                                                                      %
     %  vdW-DF NEWS:                                                        %
     %                                                                      %
     %  * vdW-DF3 is now available. DOI: 10.1021/acs.jctc.0c00471           %
     %    use with input_dft = 'vdW-DF3-opt1' or 'vdW-DF3-opt2'             %
     %                                                                      %
     %  * Unscreened and range-separated hybrid vdW-DF-cx functionals       %
     %    DOI: 10.1063/1.4986522 and 10.1088/1361-648X/ac2ad2               %
     %    use with input_dft = 'vdW-DF-cx0'    and 'vdW-DF-ahcx'            %
     %  * Unscreened and range-separated hybrid vdW-DF2-b86r functionals    %
     %    DOI: 10.1063/1.4986522 and DOI: 10.1103/PhysRevX.12.041003        %
     %    use with input_dft = 'vdW-DF2-br0' and 'vdW-DF2-ahbr'             %
     %                                                                      %
     %%%%%%%%%%%%%%%%%%%%%%%%%%%%%%%%%%%%%%%%%%%%%%%%%%%%%%%%%%%%%%%%%%%%%%%%


     Starting wfcs are   62 randomized atomic wfcs
     Checking if some PAW data can be deallocated... 

     total cpu time spent up to now is       43.6 secs

     per-process dynamical memory:   142.9 Mb

     Self-consistent Calculation

     iteration #  1     ecut=    80.00 Ry     beta= 0.10
     Davidson diagonalization with overlap
     ethr =  1.00E-02,  avg # of iterations =  4.2

     Threshold (ethr) on eigenvalues was too large:
     Diagonalizing with lowered threshold

     Davidson diagonalization with overlap
     ethr =  1.09E-04,  avg # of iterations =  5.3

     negative rho (up, down):  8.586E-05 0.000E+00

     total cpu time spent up to now is      231.8 secs

     total energy              =   -3113.99392548 Ry
     estimated scf accuracy    <       0.12853568 Ry

     iteration #  2     ecut=    80.00 Ry     beta= 0.10
     Davidson diagonalization with overlap
     ethr =  1.40E-04,  avg # of iterations =  1.0

     negative rho (up, down):  6.342E-05 0.000E+00

     total cpu time spent up to now is      301.5 secs

     total energy              =   -3113.95010282 Ry
     estimated scf accuracy    <       0.11677187 Ry

     iteration #  3     ecut=    80.00 Ry     beta= 0.10
     Davidson diagonalization with overlap
     ethr =  1.27E-04,  avg # of iterations =  2.5

     negative rho (up, down):  2.466E-05 0.000E+00

     total cpu time spent up to now is      394.0 secs

     total energy              =   -3113.96446644 Ry
     estimated scf accuracy    <       0.02415750 Ry

     iteration #  4     ecut=    80.00 Ry     beta= 0.10
     Davidson diagonalization with overlap
     ethr =  2.63E-05,  avg # of iterations =  2.0

     negative rho (up, down):  2.196E-06 0.000E+00

     total cpu time spent up to now is      471.3 secs

     total energy              =   -3113.95987037 Ry
     estimated scf accuracy    <       0.02133516 Ry

     iteration #  5     ecut=    80.00 Ry     beta= 0.10
     Davidson diagonalization with overlap
     ethr =  2.32E-05,  avg # of iterations =  5.4

     negative rho (up, down):  1.769E-06 0.000E+00

     total cpu time spent up to now is      563.6 secs

     total energy              =   -3113.96160426 Ry
     estimated scf accuracy    <       0.00286836 Ry

     iteration #  6     ecut=    80.00 Ry     beta= 0.10
     Davidson diagonalization with overlap
     c_bands:  1 eigenvalues not converged
     c_bands:  1 eigenvalues not converged
     ethr =  3.12E-06,  avg # of iterations =  8.5

     negative rho (up, down):  3.846E-07 0.000E+00

     total cpu time spent up to now is      662.7 secs

     total energy              =   -3113.96043521 Ry
     estimated scf accuracy    <       0.00257376 Ry

     iteration #  7     ecut=    80.00 Ry     beta= 0.10
     Davidson diagonalization with overlap
     ethr =  2.80E-06,  avg # of iterations =  5.1

     negative rho (up, down):  2.337E-07 0.000E+00

     total cpu time spent up to now is      763.7 secs

     total energy              =   -3113.96038344 Ry
     estimated scf accuracy    <       0.00358570 Ry

     iteration #  8     ecut=    80.00 Ry     beta= 0.10
     Davidson diagonalization with overlap
     ethr =  2.80E-06,  avg # of iterations =  2.2

     negative rho (up, down):  4.325E-08 0.000E+00

     total cpu time spent up to now is      842.8 secs

     total energy              =   -3113.96052587 Ry
     estimated scf accuracy    <       0.00071954 Ry

     iteration #  9     ecut=    80.00 Ry     beta= 0.10
     Davidson diagonalization with overlap
     ethr =  7.82E-07,  avg # of iterations =  5.8

     negative rho (up, down):  4.831E-08 0.000E+00

     total cpu time spent up to now is      933.9 secs

     total energy              =   -3113.96052481 Ry
     estimated scf accuracy    <       0.00053574 Ry

     iteration # 10     ecut=    80.00 Ry     beta= 0.10
     Davidson diagonalization with overlap
     ethr =  5.82E-07,  avg # of iterations =  1.9

     total cpu time spent up to now is     1005.4 secs

     total energy              =   -3113.96051604 Ry
     estimated scf accuracy    <       0.00049217 Ry

     iteration # 11     ecut=    80.00 Ry     beta= 0.10
     Davidson diagonalization with overlap
     ethr =  5.35E-07,  avg # of iterations =  1.4

     total cpu time spent up to now is     1081.7 secs

     total energy              =   -3113.96051286 Ry
     estimated scf accuracy    <       0.00042553 Ry

     iteration # 12     ecut=    80.00 Ry     beta= 0.10
     Davidson diagonalization with overlap
     ethr =  4.63E-07,  avg # of iterations =  4.3

     negative rho (up, down):  1.818E-03 0.000E+00

     total cpu time spent up to now is     1163.4 secs

     total energy              =   -3113.96044625 Ry
     estimated scf accuracy    <       0.00043356 Ry

     iteration # 13     ecut=    80.00 Ry     beta= 0.10
     Davidson diagonalization with overlap
     ethr =  4.63E-07,  avg # of iterations =  2.8

     negative rho (up, down):  3.187E-03 0.000E+00

     total cpu time spent up to now is     1236.5 secs

     total energy              =   -3113.96045153 Ry
     estimated scf accuracy    <       0.00025217 Ry

     iteration # 14     ecut=    80.00 Ry     beta= 0.10
     Davidson diagonalization with overlap
     ethr =  2.74E-07,  avg # of iterations =  1.0

     negative rho (up, down):  3.686E-03 0.000E+00

     total cpu time spent up to now is     1300.7 secs

     total energy              =   -3113.96043308 Ry
     estimated scf accuracy    <       0.00025344 Ry

     iteration # 15     ecut=    80.00 Ry     beta= 0.10
     Davidson diagonalization with overlap
     ethr =  2.74E-07,  avg # of iterations =  2.0

     negative rho (up, down):  3.499E-03 0.000E+00

     total cpu time spent up to now is     1373.6 secs

     total energy              =   -3113.96044777 Ry
     estimated scf accuracy    <       0.00019424 Ry

     iteration # 16     ecut=    80.00 Ry     beta= 0.10
     Davidson diagonalization with overlap
     ethr =  2.11E-07,  avg # of iterations =  1.0

     negative rho (up, down):  3.400E-03 0.000E+00

     total cpu time spent up to now is     1441.7 secs

     total energy              =   -3113.96042863 Ry
     estimated scf accuracy    <       0.00020634 Ry

     iteration # 17     ecut=    80.00 Ry     beta= 0.10
     Davidson diagonalization with overlap
     ethr =  2.11E-07,  avg # of iterations =  2.7

     negative rho (up, down):  4.139E-03 0.000E+00

     total cpu time spent up to now is     1515.5 secs

     total energy              =   -3113.96037803 Ry
     estimated scf accuracy    <       0.00016528 Ry

     iteration # 18     ecut=    80.00 Ry     beta= 0.10
     Davidson diagonalization with overlap
     ethr =  1.80E-07,  avg # of iterations =  4.9

     negative rho (up, down):  3.067E-03 0.000E+00

     total cpu time spent up to now is     1596.5 secs

     total energy              =   -3113.96041360 Ry
     estimated scf accuracy    <       0.00009330 Ry

     iteration # 19     ecut=    80.00 Ry     beta= 0.10
     Davidson diagonalization with overlap
     ethr =  1.01E-07,  avg # of iterations =  3.6

     negative rho (up, down):  2.083E-03 0.000E+00

     total cpu time spent up to now is     1670.8 secs

     total energy              =   -3113.96035991 Ry
     estimated scf accuracy    <       0.00007561 Ry

     iteration # 20     ecut=    80.00 Ry     beta= 0.10
     Davidson diagonalization with overlap
     ethr =  8.22E-08,  avg # of iterations =  2.8

     negative rho (up, down):  2.601E-03 0.000E+00

     total cpu time spent up to now is     1768.3 secs

     total energy              =   -3113.96036581 Ry
     estimated scf accuracy    <       0.00005678 Ry

     iteration # 21     ecut=    80.00 Ry     beta= 0.10
     Davidson diagonalization with overlap
     ethr =  6.17E-08,  avg # of iterations =  1.2

     negative rho (up, down):  2.190E-03 0.000E+00

     total cpu time spent up to now is     1841.6 secs

     total energy              =   -3113.96038735 Ry
     estimated scf accuracy    <       0.00004722 Ry

     iteration # 22     ecut=    80.00 Ry     beta= 0.10
     Davidson diagonalization with overlap
     ethr =  5.13E-08,  avg # of iterations =  4.5

     negative rho (up, down):  2.157E-03 0.000E+00

     total cpu time spent up to now is     1934.5 secs

     total energy              =   -3113.96038282 Ry
     estimated scf accuracy    <       0.00001442 Ry

     iteration # 23     ecut=    80.00 Ry     beta= 0.10
     Davidson diagonalization with overlap
     ethr =  1.57E-08,  avg # of iterations =  1.6

     negative rho (up, down):  1.761E-03 0.000E+00

     total cpu time spent up to now is     2011.0 secs

     total energy              =   -3113.96038708 Ry
     estimated scf accuracy    <       0.00001238 Ry

     iteration # 24     ecut=    80.00 Ry     beta= 0.10
     Davidson diagonalization with overlap
     ethr =  1.35E-08,  avg # of iterations =  2.0

     negative rho (up, down):  8.039E-04 0.000E+00

     total cpu time spent up to now is     2088.4 secs

     total energy              =   -3113.96039269 Ry
     estimated scf accuracy    <       0.00003679 Ry

     iteration # 25     ecut=    80.00 Ry     beta= 0.10
     Davidson diagonalization with overlap
     ethr =  1.35E-08,  avg # of iterations =  2.8

     negative rho (up, down):  7.324E-04 0.000E+00

     total cpu time spent up to now is     2178.8 secs

     total energy              =   -3113.96039843 Ry
     estimated scf accuracy    <       0.00000898 Ry

     iteration # 26     ecut=    80.00 Ry     beta= 0.10
     Davidson diagonalization with overlap
     ethr =  9.76E-09,  avg # of iterations =  2.0

     negative rho (up, down):  6.098E-04 0.000E+00

     total cpu time spent up to now is     2265.9 secs

     total energy              =   -3113.96039790 Ry
     estimated scf accuracy    <       0.00000176 Ry

     iteration # 27     ecut=    80.00 Ry     beta= 0.10
     Davidson diagonalization with overlap
     ethr =  1.91E-09,  avg # of iterations =  2.8

     negative rho (up, down):  4.070E-04 0.000E+00

     total cpu time spent up to now is     2355.1 secs

     total energy              =   -3113.96039773 Ry
     estimated scf accuracy    <       0.00000126 Ry

     iteration # 28     ecut=    80.00 Ry     beta= 0.10
     Davidson diagonalization with overlap
     ethr =  1.37E-09,  avg # of iterations =  2.0

     negative rho (up, down):  2.240E-04 0.000E+00

     total cpu time spent up to now is     2432.3 secs

     total energy              =   -3113.96039769 Ry
     estimated scf accuracy    <       0.00000036 Ry

     iteration # 29     ecut=    80.00 Ry     beta= 0.10
     Davidson diagonalization with overlap
     ethr =  3.88E-10,  avg # of iterations =  2.0

     negative rho (up, down):  2.237E-04 0.000E+00

     total cpu time spent up to now is     2505.5 secs

     total energy              =   -3113.96039823 Ry
     estimated scf accuracy    <       0.00000012 Ry

     iteration # 30     ecut=    80.00 Ry     beta= 0.10
     Davidson diagonalization with overlap
     ethr =  1.35E-10,  avg # of iterations =  2.4

     negative rho (up, down):  1.678E-04 0.000E+00

     total cpu time spent up to now is     2590.5 secs

     End of self-consistent calculation

          k = 0.0000 0.0000 0.0000 ( 38015 PWs)   bands (ev):

   -74.8853 -74.8850 -48.1511 -48.1511 -48.1501 -48.1501 -48.1498 -48.1498
   -48.1483 -48.1483 -48.1205 -48.1205 -48.1196 -48.1195 -48.1190 -48.1190
   -48.1177 -48.1177 -48.1065 -48.1055 -48.1049 -48.1036 -39.0783 -39.0778
   -39.0432 -39.0432 -39.0424 -39.0424 -15.5145 -15.5115 -14.4436 -14.4423
    -6.9797  -6.9710  -3.3613  -3.3559  -3.3559  -3.3512  -3.3512  -3.3075
    -1.3552  -1.2992  -0.6920  -0.6920  -0.6898  -0.6898   0.2046   0.2046
     0.2067   0.2067   2.9377   3.4070   3.4070   3.4088   3.4088

          k = 0.0000 0.0722 0.0000 ( 37975 PWs)   bands (ev):

   -74.8849 -74.8846 -48.1511 -48.1509 -48.1501 -48.1499 -48.1498 -48.1496
   -48.1483 -48.1481 -48.1206 -48.1205 -48.1196 -48.1196 -48.1191 -48.1190
   -48.1177 -48.1177 -48.1064 -48.1054 -48.1048 -48.1035 -39.0765 -39.0760
   -39.0523 -39.0515 -39.0453 -39.0445 -15.4534 -15.4504 -14.4156 -14.4142
    -6.8973  -6.8886  -3.8517  -3.8326  -3.3212  -3.3165  -2.9410  -2.9072
    -1.4200  -1.3813  -0.9832  -0.9722  -0.9210  -0.9186   0.1838   0.2005
     0.4060   0.4078   2.9439   3.0800   3.1950   3.3653   3.3671

          k = 0.0000 0.1443 0.0000 ( 37895 PWs)   bands (ev):

   -74.8838 -74.8834 -48.1510 -48.1504 -48.1501 -48.1498 -48.1494 -48.1490
   -48.1483 -48.1476 -48.1208 -48.1206 -48.1198 -48.1196 -48.1193 -48.1191
   -48.1179 -48.1177 -48.1061 -48.1051 -48.1045 -48.1032 -39.0781 -39.0773
   -39.0713 -39.0708 -39.0514 -39.0506 -15.2743 -15.2714 -14.3336 -14.3322
    -6.6575  -6.6488  -4.3536  -4.3401  -3.2381  -3.2335  -2.7168  -2.6863
    -2.0424  -2.0355  -1.3045  -1.3019  -1.2119  -1.1759   0.1739   0.2108
     0.7099   0.7113   2.4263   2.5284   3.2890   3.2906   3.4635

          k = 0.0000 0.2165 0.0000 ( 37851 PWs)   bands (ev):

   -74.8821 -74.8817 -48.1510 -48.1500 -48.1498 -48.1496 -48.1486 -48.1483
   -48.1483 -48.1468 -48.1211 -48.1207 -48.1201 -48.1198 -48.1195 -48.1191
   -48.1182 -48.1178 -48.1058 -48.1048 -48.1041 -48.1029 -39.1164 -39.1156
   -39.0636 -39.0631 -39.0604 -39.0596 -14.9909 -14.9881 -14.2042 -14.2026
    -6.2898  -6.2812  -4.8039  -4.7943  -3.2995  -3.2961  -3.1751  -3.1706
    -2.4611  -2.4340  -1.5971  -1.5942  -1.3428  -1.3212   0.2058   0.2543
     0.9127   0.9136   2.1042   2.2351   3.2625   3.2641   3.8652

          k = 0.0000 0.2887 0.0000 ( 37919 PWs)   bands (ev):

   -74.8801 -74.8797 -48.1510 -48.1501 -48.1498 -48.1487 -48.1483 -48.1477
   -48.1474 -48.1460 -48.1215 -48.1209 -48.1205 -48.1199 -48.1198 -48.1192
   -48.1185 -48.1179 -48.1053 -48.1043 -48.1037 -48.1024 -39.1613 -39.1605
   -39.0710 -39.0702 -39.0545 -39.0540 -14.6301 -14.6274 -14.0361 -14.0343
    -5.8982  -5.8908  -5.1193  -5.1119  -4.3571  -4.3541  -3.2206  -3.2163
    -2.6281  -2.6091  -1.6948  -1.6918  -1.6412  -1.6308   0.3627   0.4131
     1.0175   1.0183   2.2271   2.3905   3.3076   3.3094   4.3337

          k = 0.0000 0.3608 0.0000 ( 37933 PWs)   bands (ev):

   -74.8781 -74.8777 -48.1511 -48.1501 -48.1497 -48.1483 -48.1478 -48.1469
   -48.1465 -48.1451 -48.1219 -48.1210 -48.1209 -48.1201 -48.1200 -48.1193
   -48.1188 -48.1180 -48.1049 -48.1039 -48.1033 -48.1020 -39.2058 -39.2050
   -39.0816 -39.0808 -39.0453 -39.0448 -14.2455 -14.2428 -13.8311 -13.8291
    -5.9076  -5.9040  -5.3341  -5.3302  -4.9183  -4.9110  -3.3697  -3.3656
    -2.9702  -2.9597  -1.9441  -1.9364  -1.6343  -1.6313   0.7064   0.7495
     1.1107   1.1116   2.6619   2.8415   3.3813   3.3835   4.7992

          k = 0.0000 0.4330 0.0000 ( 37998 PWs)   bands (ev):

   -74.8764 -74.8760 -48.1512 -48.1502 -48.1497 -48.1483 -48.1471 -48.1461
   -48.1458 -48.1444 -48.1223 -48.1213 -48.1211 -48.1203 -48.1201 -48.1194
   -48.1190 -48.1180 -48.1045 -48.1035 -48.1029 -48.1016 -39.2433 -39.2425
   -39.0906 -39.0898 -39.0375 -39.0371 -13.9410 -13.9383 -13.5681 -13.5661
    -6.5218  -6.5189  -5.6035  -5.5995  -4.6945  -4.6897  -3.5342  -3.5303
    -3.2619  -3.2538  -2.1301  -2.1246  -1.5388  -1.5360   1.1783   1.2099
     1.2494   1.2508   3.1840   3.3284   3.4431   3.4456   4.5243

          k = 0.0000 0.5052 0.0000 ( 38048 PWs)   bands (ev):

   -74.8752 -74.8749 -48.1512 -48.1502 -48.1497 -48.1483 -48.1466 -48.1456
   -48.1453 -48.1439 -48.1225 -48.1215 -48.1212 -48.1205 -48.1202 -48.1194
   -48.1192 -48.1181 -48.1043 -48.1033 -48.1027 -48.1014 -39.2682 -39.2674
   -39.0965 -39.0957 -39.0324 -39.0319 -13.7794 -13.7766 -13.2998 -13.2978
    -7.0858  -7.0828  -5.6207  -5.6179  -4.7690  -4.7664  -3.6510  -3.6471
    -3.1941  -3.1870  -2.2469  -2.2437  -1.4773  -1.4748   1.3987   1.4005
     1.6569   1.6755   3.4298   3.4729   3.4794   3.4822   4.4285

          k = 0.0000-0.5774 0.0000 ( 38024 PWs)   bands (ev):

   -74.8748 -74.8745 -48.1513 -48.1503 -48.1497 -48.1483 -48.1464 -48.1455
   -48.1452 -48.1437 -48.1226 -48.1216 -48.1212 -48.1205 -48.1202 -48.1194
   -48.1192 -48.1181 -48.1042 -48.1032 -48.1026 -48.1013 -39.2770 -39.2761
   -39.0986 -39.0978 -39.0305 -39.0301 -13.7296 -13.7268 -13.1854 -13.1834
    -7.2986  -7.2956  -5.5850  -5.5833  -4.8912  -4.8885  -3.6923  -3.6884
    -3.0772  -3.0720  -2.2995  -2.2971  -1.4583  -1.4559   1.4654   1.4672
     1.8858   1.8932   3.4579   3.4878   3.4910   3.4938   4.2262

          k = 0.0625 0.1083 0.0000 ( 37895 PWs)   bands (ev):

   -74.8842 -74.8838 -48.1510 -48.1505 -48.1500 -48.1497 -48.1496 -48.1492
   -48.1483 -48.1478 -48.1207 -48.1206 -48.1198 -48.1196 -48.1192 -48.1191
   -48.1178 -48.1177 -48.1062 -48.1052 -48.1046 -48.1033 -39.0730 -39.0726
   -39.0694 -39.0686 -39.0496 -39.0489 -15.3332 -15.3303 -14.3606 -14.3592
    -6.7358  -6.7271  -4.2197  -4.2048  -3.2700  -3.2654  -2.7404  -2.7065
    -1.7829  -1.7762  -1.3141  -1.3103  -1.1221  -1.0859   0.2458   0.2765
     0.5584   0.5598   2.6413   2.7424   3.2080   3.2304   3.3969

          k = 0.0625 0.1804 0.0000 ( 37885 PWs)   bands (ev):

   -74.8827 -74.8824 -48.1510 -48.1500 -48.1499 -48.1497 -48.1489 -48.1486
   -48.1483 -48.1472 -48.1210 -48.1207 -48.1200 -48.1197 -48.1194 -48.1191
   -48.1181 -48.1178 -48.1059 -48.1049 -48.1043 -48.1030 -39.1008 -39.1000
   -39.0667 -39.0662 -39.0578 -39.0570 -15.1016 -15.0987 -14.2551 -14.2535
    -6.4279  -6.4192  -4.6494  -4.6386  -3.2614  -3.2570  -2.8106  -2.7970
    -2.4745  -2.4610  -1.6589  -1.6514  -1.1536  -1.1220   0.3031   0.3402
     0.6605   0.6697   2.3547   2.4713   3.0723   3.0832   3.7291

          k = 0.0625 0.2526 0.0000 ( 37916 PWs)   bands (ev):

   -74.8809 -74.8805 -48.1510 -48.1500 -48.1497 -48.1491 -48.1483 -48.1481
   -48.1478 -48.1464 -48.1214 -48.1208 -48.1204 -48.1198 -48.1197 -48.1192
   -48.1183 -48.1179 -48.1055 -48.1045 -48.1039 -48.1026 -39.1414 -39.1406
   -39.0688 -39.0681 -39.0580 -39.0575 -14.7776 -14.7748 -14.1072 -14.1055
    -6.0219  -6.0136  -5.0213  -5.0132  -3.9020  -3.8991  -3.2002  -3.1959
    -2.6060  -2.5906  -1.9188  -1.9123  -1.2161  -1.1985   0.2601   0.2968
     0.8611   0.8829   2.2847   2.4097   3.0722   3.1020   4.1578

          k = 0.0625 0.3248 0.0000 ( 37964 PWs)   bands (ev):

   -74.8789 -74.8785 -48.1510 -48.1500 -48.1497 -48.1483 -48.1482 -48.1473
   -48.1470 -48.1455 -48.1217 -48.1210 -48.1207 -48.1200 -48.1200 -48.1193
   -48.1186 -48.1180 -48.1051 -48.1041 -48.1035 -48.1022 -39.1851 -39.1843
   -39.0804 -39.0796 -39.0489 -39.0485 -14.3980 -14.3954 -13.9250 -13.9231
    -5.7491  -5.7435  -5.1901  -5.1841  -4.8259  -4.8217  -3.4330  -3.4291
    -2.7169  -2.7065  -2.2463  -2.2436  -1.2691  -1.2596   0.3753   0.4093
     1.1183   1.1368   2.4501   2.5691   3.1932   3.2569   4.6491

          k = 0.0625 0.3969 0.0000 ( 37981 PWs)   bands (ev):

   -74.8770 -74.8767 -48.1510 -48.1500 -48.1496 -48.1482 -48.1475 -48.1465
   -48.1462 -48.1448 -48.1221 -48.1211 -48.1211 -48.1202 -48.1201 -48.1194
   -48.1189 -48.1180 -48.1047 -48.1037 -48.1031 -48.1018 -39.2251 -39.2243
   -39.0911 -39.0903 -39.0405 -39.0401 -14.0405 -14.0379 -13.6987 -13.6967
    -6.1348  -6.1319  -5.5123  -5.5082  -4.7704  -4.7637  -3.6819  -3.6781
    -2.9812  -2.9755  -2.4751  -2.4721  -1.2611  -1.2557   0.6734   0.6977
     1.3903   1.4040   2.7588   2.8335   3.3938   3.4973   4.8879

          k = 0.0625 0.4691 0.0000 ( 38057 PWs)   bands (ev):

   -74.8756 -74.8753 -48.1511 -48.1501 -48.1496 -48.1482 -48.1469 -48.1459
   -48.1456 -48.1442 -48.1224 -48.1214 -48.1212 -48.1204 -48.1202 -48.1195
   -48.1191 -48.1181 -48.1044 -48.1034 -48.1028 -48.1015 -39.2556 -39.2547
   -39.0993 -39.0985 -39.0340 -39.0336 -13.8128 -13.8101 -13.4188 -13.4168
    -6.7873  -6.7843  -5.6159  -5.6125  -4.6543  -4.6511  -3.7960  -3.7921
    -3.1488  -3.1434  -2.5715  -2.5691  -1.2649  -1.2620   1.0557   1.0686
     1.6639   1.6748   3.0090   3.0368   3.5843   3.6455   4.5811

          k = 0.0625 0.5413 0.0000 ( 38034 PWs)   bands (ev):

   -74.8748 -74.8745 -48.1511 -48.1501 -48.1495 -48.1481 -48.1466 -48.1456
   -48.1453 -48.1439 -48.1225 -48.1215 -48.1213 -48.1205 -48.1203 -48.1195
   -48.1192 -48.1181 -48.1042 -48.1032 -48.1026 -48.1013 -39.2720 -39.2711
   -39.1037 -39.1029 -39.0305 -39.0301 -13.7132 -13.7104 -13.2123 -13.2103
    -7.1865  -7.1835  -5.5898  -5.5877  -4.8120  -4.8094  -3.8054  -3.8019
    -3.0713  -3.0665  -2.6215  -2.6199  -1.2914  -1.2893   1.3661   1.3699
     1.8378   1.8453   3.1747   3.1834   3.5157   3.5468   4.4753

          k = 0.1250 0.2165 0.0000 ( 37933 PWs)   bands (ev):

   -74.8812 -74.8808 -48.1509 -48.1499 -48.1497 -48.1493 -48.1483 -48.1482
   -48.1480 -48.1466 -48.1213 -48.1208 -48.1203 -48.1198 -48.1196 -48.1193
   -48.1183 -48.1179 -48.1056 -48.1046 -48.1040 -48.1027 -39.1331 -39.1323
   -39.0695 -39.0687 -39.0591 -39.0586 -14.8281 -14.8253 -14.1316 -14.1300
    -6.0666  -6.0581  -4.9734  -4.9650  -3.7361  -3.7328  -2.9828  -2.9704
    -2.8987  -2.8952  -1.9182  -1.9052  -1.0504  -1.0233   0.2718   0.2853
     0.6809   0.7260   2.5982   2.6927   2.6935   2.7537   4.1037

          k = 0.1250 0.2887 0.0000 ( 37936 PWs)   bands (ev):

   -74.8793 -74.8790 -48.1508 -48.1499 -48.1495 -48.1486 -48.1481 -48.1476
   -48.1473 -48.1459 -48.1217 -48.1209 -48.1207 -48.1199 -48.1198 -48.1194
   -48.1185 -48.1180 -48.1052 -48.1042 -48.1036 -48.1023 -39.1704 -39.1696
   -39.0833 -39.0825 -39.0508 -39.0504 -14.4790 -14.4763 -13.9735 -13.9716
    -5.6509  -5.6435  -5.2301  -5.2235  -4.5443  -4.5411  -3.4402  -3.4350
    -2.9753  -2.9719  -2.2000  -2.1924  -0.9340  -0.9149   0.0856   0.1086
     1.0668   1.1050   2.3836   2.4075   2.9632   3.1204   4.5602

          k = 0.1250 0.3608 0.0000 ( 38000 PWs)   bands (ev):

   -74.8775 -74.8771 -48.1508 -48.1498 -48.1494 -48.1480 -48.1479 -48.1469
   -48.1466 -48.1452 -48.1220 -48.1211 -48.1210 -48.1201 -48.1201 -48.1195
   -48.1188 -48.1181 -48.1048 -48.1038 -48.1032 -48.1019 -39.2072 -39.2063
   -39.0974 -39.0966 -39.0425 -39.0420 -14.1041 -14.1015 -13.7858 -13.7837
    -5.7204  -5.7172  -5.3701  -5.3663  -4.9034  -4.8956  -3.8271  -3.8233
    -3.0789  -3.0760  -2.6334  -2.6299  -0.8520  -0.8401   0.1960   0.2194
     1.4612   1.4843   2.3021   2.3293   3.3290   3.4913   5.0559

          k = 0.1250 0.4330 0.0000 ( 38048 PWs)   bands (ev):

   -74.8759 -74.8755 -48.1508 -48.1498 -48.1493 -48.1479 -48.1473 -48.1463
   -48.1460 -48.1446 -48.1223 -48.1213 -48.1212 -48.1203 -48.1202 -48.1196
   -48.1190 -48.1182 -48.1044 -48.1035 -48.1028 -48.1016 -39.2380 -39.2372
   -39.1095 -39.1087 -39.0353 -39.0349 -13.8112 -13.8086 -13.5416 -13.5394
    -6.3531  -6.3502  -5.5624  -5.5587  -4.5584  -4.5532  -4.0772  -4.0733
    -3.2084  -3.2060  -3.0032  -3.0002  -0.8698  -0.8632   0.5517   0.5696
     1.7544   1.7640   2.4076   2.4324   3.6534   3.7676   5.0470

          k = 0.1250 0.5052 0.0000 ( 38027 PWs)   bands (ev):

   -74.8748 -74.8745 -48.1507 -48.1497 -48.1492 -48.1478 -48.1469 -48.1459
   -48.1456 -48.1442 -48.1224 -48.1214 -48.1214 -48.1204 -48.1204 -48.1196
   -48.1191 -48.1183 -48.1042 -48.1032 -48.1026 -48.1013 -39.2585 -39.2576
   -39.1176 -39.1168 -39.0306 -39.0301 -13.6652 -13.6625 -13.2852 -13.2831
    -6.8737  -6.8707  -5.5853  -5.5826  -4.6187  -4.6160  -4.0429  -4.0394
    -3.2973  -3.2953  -3.1071  -3.1037  -0.9564  -0.9528   1.0103   1.0208
     1.8390   1.8427   2.6089   2.6260   3.6915   3.7281   4.9036

          k = 0.1250 0.5774 0.0000 ( 37968 PWs)   bands (ev):

   -74.8745 -74.8741 -48.1507 -48.1497 -48.1491 -48.1477 -48.1467 -48.1457
   -48.1455 -48.1440 -48.1225 -48.1215 -48.1214 -48.1204 -48.1204 -48.1196
   -48.1191 -48.1183 -48.1041 -48.1031 -48.1025 -48.1012 -39.2657 -39.2648
   -39.1204 -39.1196 -39.0289 -39.0284 -13.6205 -13.6177 -13.1778 -13.1757
    -7.0668  -7.0638  -5.5689  -5.5669  -4.7244  -4.7217  -4.0212  -4.0181
    -3.3170  -3.3153  -3.0753  -3.0723  -1.0078  -1.0049   1.3082   1.3106
     1.7477   1.7516   2.7531   2.7562   3.5625   3.5964   4.9244

          k = 0.1875 0.3248 0.0000 ( 37987 PWs)   bands (ev):

   -74.8776 -74.8773 -48.1506 -48.1496 -48.1493 -48.1481 -48.1478 -48.1471
   -48.1468 -48.1454 -48.1220 -48.1210 -48.1209 -48.1201 -48.1200 -48.1195
   -48.1187 -48.1182 -48.1048 -48.1038 -48.1032 -48.1019 -39.1990 -39.1982
   -39.1014 -39.1006 -39.0431 -39.0427 -14.1260 -14.1235 -13.8161 -13.8140
    -5.4177  -5.4129  -5.3950  -5.3921  -4.9803  -4.9730  -3.8292  -3.8249
    -3.3853  -3.3822  -2.5119  -2.5086  -0.6019  -0.5850  -0.0712  -0.0503
     1.4639   1.4936   2.1180   2.1289   3.3118   3.4896   5.0336

          k = 0.1875 0.3969 0.0000 ( 38014 PWs)   bands (ev):

   -74.8760 -74.8757 -48.1504 -48.1494 -48.1490 -48.1477 -48.1476 -48.1467
   -48.1464 -48.1449 -48.1222 -48.1212 -48.1212 -48.1202 -48.1202 -48.1197
   -48.1189 -48.1183 -48.1045 -48.1035 -48.1029 -48.1016 -39.2237 -39.2229
   -39.1198 -39.1190 -39.0360 -39.0356 -13.7832 -13.7807 -13.6362 -13.6340
    -5.9355  -5.9327  -5.5157  -5.5117  -4.6062  -4.5990  -4.1816  -4.1783
    -3.7295  -3.7267  -2.9144  -2.9131  -0.4338  -0.4230   0.0753   0.0924
     1.7865   1.8017   2.0294   2.0473   3.6846   3.8249   5.4554

          k = 0.1875 0.4691 0.0000 ( 38010 PWs)   bands (ev):

   -74.8748 -74.8745 -48.1503 -48.1493 -48.1487 -48.1473 -48.1473 -48.1463
   -48.1461 -48.1446 -48.1223 -48.1214 -48.1213 -48.1204 -48.1203 -48.1198
   -48.1190 -48.1184 -48.1042 -48.1032 -48.1026 -48.1013 -39.2416 -39.2408
   -39.1348 -39.1339 -39.0306 -39.0301 -13.5896 -13.5870 -13.3850 -13.3827
    -6.4503  -6.4474  -5.5660  -5.5628  -4.4338  -4.4309  -4.2361  -4.2315
    -3.9810  -3.9786  -3.2122  -3.2107  -0.5263  -0.5205   0.5193   0.5300
     1.8508   1.8553   2.1937   2.2164   3.8697   3.9261   5.2116

          k = 0.1875 0.5413 0.0000 ( 38010 PWs)   bands (ev):

   -74.8742 -74.8738 -48.1502 -48.1492 -48.1486 -48.1472 -48.1471 -48.1461
   -48.1459 -48.1444 -48.1223 -48.1215 -48.1213 -48.1205 -48.1204 -48.1198
   -48.1191 -48.1184 -48.1041 -48.1031 -48.1025 -48.1012 -39.2510 -39.2502
   -39.1431 -39.1423 -39.0276 -39.0272 -13.5111 -13.5085 -13.2013 -13.1991
    -6.7499  -6.7470  -5.5735  -5.5709  -4.5651  -4.5623  -4.1717  -4.1690
    -4.0588  -4.0569  -3.2651  -3.2632  -0.6339  -0.6302   0.9922   0.9968
     1.6212   1.6231   2.4747   2.4901   3.6822   3.7118   5.2295

          k = 0.2500 0.4330 0.0000 ( 38031 PWs)   bands (ev):

   -74.8748 -74.8745 -48.1500 -48.1490 -48.1485 -48.1476 -48.1471 -48.1466
   -48.1463 -48.1448 -48.1223 -48.1214 -48.1213 -48.1204 -48.1203 -48.1198
   -48.1190 -48.1185 -48.1042 -48.1032 -48.1026 -48.1013 -39.2328 -39.2320
   -39.1438 -39.1429 -39.0306 -39.0302 -13.5034 -13.5010 -13.4810 -13.4784
    -6.1963  -6.1935  -5.5631  -5.5597  -4.4155  -4.4131  -4.3812  -4.3778
    -4.1729  -4.1685  -3.2830  -3.2821  -0.0442  -0.0325   0.0087   0.0132
     1.8362   1.8453   2.0687   2.0903   3.9446   4.0143   5.3860

          k = 0.2500 0.5052 0.0000 ( 38019 PWs)   bands (ev):

   -74.8740 -74.8737 -48.1497 -48.1487 -48.1482 -48.1475 -48.1468 -48.1465
   -48.1463 -48.1449 -48.1222 -48.1216 -48.1212 -48.1206 -48.1204 -48.1199
   -48.1191 -48.1185 -48.1040 -48.1031 -48.1025 -48.1012 -39.2350 -39.2342
   -39.1635 -39.1627 -39.0270 -39.0265 -13.4042 -13.4016 -13.2666 -13.2642
    -6.3677  -6.3649  -5.5927  -5.5898  -4.8093  -4.8065  -4.3773  -4.3746
    -4.0475  -4.0444  -3.5460  -3.5449  -0.1525  -0.1476   0.4436   0.4471
     1.5610   1.5625   2.4019   2.4296   3.8561   3.8708   5.1113

          k = 0.2500 0.5774 0.0000 ( 38023 PWs)   bands (ev):

   -74.8737 -74.8734 -48.1495 -48.1485 -48.1480 -48.1475 -48.1468 -48.1463
   -48.1463 -48.1449 -48.1222 -48.1217 -48.1212 -48.1207 -48.1205 -48.1199
   -48.1192 -48.1186 -48.1040 -48.1030 -48.1024 -48.1011 -39.2346 -39.2337
   -39.1717 -39.1709 -39.0257 -39.0253 -13.3689 -13.3663 -13.1866 -13.1843
    -6.4257  -6.4229  -5.5998  -5.5970  -4.9774  -4.9746  -4.2123  -4.2111
    -4.2083  -4.2060  -3.5633  -3.5620  -0.2129  -0.2092   0.8023   0.8035
     1.2245   1.2264   2.6952   2.7074   3.6073   3.6247   5.0336

          k = 0.3125 0.5413 0.0000 ( 38095 PWs)   bands (ev):

   -74.8736 -74.8732 -48.1492 -48.1481 -48.1480 -48.1474 -48.1470 -48.1467
   -48.1461 -48.1452 -48.1221 -48.1218 -48.1211 -48.1208 -48.1206 -48.1199
   -48.1192 -48.1186 -48.1040 -48.1030 -48.1024 -48.1011 -39.2197 -39.2189
   -39.1909 -39.1900 -39.0250 -39.0246 -13.2816 -13.2791 -13.2196 -13.2171
    -6.1153  -6.1125  -5.6295  -5.6265  -5.4156  -5.4127  -4.2222  -4.2200
    -3.9262  -3.9242  -3.8953  -3.8936   0.2268   0.2320   0.4078   0.4105
     1.0765   1.0783   2.8932   2.9185   3.5318   3.5447   4.8371

     the Fermi energy is    -0.0100 ev

!    total energy              =   -3113.96039838 Ry
     total all-electron energy =    -83998.684963 Ry
     estimated scf accuracy    <       0.00000009 Ry
     smearing contrib. (-TS)   =       0.00044451 Ry
     internal energy E=F+TS    =   -3113.96084290 Ry

     The total energy is F=E-TS. E is the sum of the following terms:
     one-electron contribution =  -23310.05257999 Ry
     hartree contribution      =   11642.17889635 Ry
     xc contribution           =    -193.57540568 Ry
     ewald contribution        =   10508.80231018 Ry
     one-center paw contrib.   =   -1761.31406376 Ry

     convergence has been achieved in  30 iterations

     Writing all to output data dir ./tmp/cleave_015/wse2_cleave_015.save/ :
     XML data file, charge density, pseudopotentials, collected wavefunctions

     init_run     :     41.70s CPU     42.98s WALL (       1 calls)
     electrons    :   2134.18s CPU   2546.95s WALL (       1 calls)

     Called by init_run:
     wfcinit      :     25.12s CPU     25.76s WALL (       1 calls)
     potinit      :     14.92s CPU     15.39s WALL (       1 calls)
     hinit0       :      0.20s CPU      0.21s WALL (       1 calls)

     Called by electrons:
     c_bands      :   1741.48s CPU   2063.69s WALL (      31 calls)
     sum_band     :    253.49s CPU    309.64s WALL (      31 calls)
     v_of_rho     :     65.91s CPU     76.31s WALL (      31 calls)
     newd         :     28.24s CPU     39.13s WALL (      31 calls)
     PAW_pot      :      6.10s CPU      6.68s WALL (      31 calls)
     mix_rho      :     53.53s CPU     66.29s WALL (      31 calls)
     vdW_kernel   :     13.13s CPU     13.46s WALL (       1 calls)

     Called by c_bands:
     init_us_2    :      5.43s CPU      6.64s WALL (    1890 calls)
     cegterg      :   1697.68s CPU   2013.26s WALL (     930 calls)

     Called by *egterg:
     cdiaghg      :     25.35s CPU     31.00s WALL (    3713 calls)
     h_psi        :    867.93s CPU   1036.37s WALL (    3773 calls)
     s_psi        :    108.20s CPU    129.53s WALL (    3773 calls)
     g_psi        :      1.31s CPU      1.62s WALL (    2813 calls)

     Called by h_psi:
     h_psi:calbec :    211.02s CPU    249.56s WALL (    3773 calls)
     vloc_psi     :    526.91s CPU    627.75s WALL (    3773 calls)
                                        0.00s GPU  (    3773 calls)
     add_vuspsi   :    128.48s CPU    157.27s WALL (    3773 calls)

     General routines
     calbec       :    302.03s CPU    357.70s WALL (    4703 calls)
     fft          :     43.71s CPU     50.59s WALL (    1952 calls)
     ffts         :     18.07s CPU     22.07s WALL (    3629 calls)
     fftw         :    623.58s CPU    744.61s WALL (  276102 calls)
     interpolate  :      0.80s CPU      1.03s WALL (      31 calls)

     Parallel routines

     PWSCF        :  36m19.15s CPU  43m14.04s WALL


   This run was terminated on:  16:25: 4  18Jun2026            

=------------------------------------------------------------------------------=
   JOB DONE.
=------------------------------------------------------------------------------=
Note: The following floating-point exceptions are signalling: IEEE_UNDERFLOW_FLAG IEEE_DENORMAL
Note: The following floating-point exceptions are signalling: IEEE_UNDERFLOW_FLAG IEEE_DENORMAL
Note: The following floating-point exceptions are signalling: IEEE_UNDERFLOW_FLAG IEEE_DENORMAL
Note: The following floating-point exceptions are signalling: IEEE_UNDERFLOW_FLAG IEEE_DENORMAL
Note: The following floating-point exceptions are signalling: IEEE_UNDERFLOW_FLAG IEEE_DENORMAL
Note: The following floating-point exceptions are signalling: IEEE_UNDERFLOW_FLAG IEEE_DENORMAL
Note: The following floating-point exceptions are signalling: IEEE_UNDERFLOW_FLAG IEEE_DENORMAL
Note: The following floating-point exceptions are signalling: IEEE_UNDERFLOW_FLAG IEEE_DENORMAL
Note: The following floating-point exceptions are signalling: IEEE_UNDERFLOW_FLAG IEEE_DENORMAL
Note: The following floating-point exceptions are signalling: IEEE_UNDERFLOW_FLAG IEEE_DENORMAL
Note: The following floating-point exceptions are signalling: IEEE_UNDERFLOW_FLAG IEEE_DENORMAL
Note: The following floating-point exceptions are signalling: IEEE_UNDERFLOW_FLAG IEEE_DENORMAL
