
     Program PWSCF v.7.5 starts on 18Jun2026 at 13:29:20 

     This program is part of the open-source Quantum ESPRESSO suite
     for quantum simulation of materials; please cite
         "P. Giannozzi et al., J. Phys.:Condens. Matter 21 395502 (2009);
         "P. Giannozzi et al., J. Phys.:Condens. Matter 29 465901 (2017);
         "P. Giannozzi et al., J. Chem. Phys. 152 154105 (2020);
          URL http://www.quantum-espresso.org", 
     in publications or presentations arising from this work. More details at
     http://www.quantum-espresso.org/quote

     Parallel version (MPI), running on    12 processors

     MPI processes distributed on     1 nodes
     35534 MiB available memory on the printing compute node when the environment starts

     Waiting for input...
     Reading input from standard input

     Current dimensions of program PWSCF are:
     Max number of different atomic species (ntypx) = 10
     Max number of k-points (npk) =  40000
     Max angular momentum in pseudopotentials (lmaxx) =  4
     file W.pbe-spn-kjpaw_psl.1.0.0.UPF: wavefunction(s)  6S 5P 5D renormalized
     file Se.pbe-dn-kjpaw_psl.1.0.0.UPF: wavefunction(s)  4S 4P 3D renormalized

     IMPORTANT: XC functional enforced from input :
     Exchange-correlation= VDW-DF2-B86R
                           (   1   4  26   0   2   0   0)
     Any further DFT definition will be discarded
     Please, verify this is what you really want


     R & G space division:  proc/nbgrp/npool/nimage =      12
     Subspace diagonalization in iterative solution of the eigenvalue problem:
     a serial algorithm will be used


     Parallelization info
     --------------------
     sticks:   dense  smooth     PW     G-vecs:    dense   smooth      PW
     Min         139      70     20                71489    25322    3895
     Max         140      71     22                71558    25395    3945
     Sum        1675     847    253               858263   304337   46813

     Using Slab Decomposition



     bravais-lattice index     =            4
     lattice parameter (alat)  =       6.1983  a.u.
     unit-cell volume          =    3143.7277 (a.u.)^3
     number of atoms/cell      =            6
     number of atomic types    =            2
     number of electrons       =        92.00
     number of Kohn-Sham states=           55
     kinetic-energy cutoff     =      80.0000  Ry
     charge density cutoff     =     640.0000  Ry
     scf convergence threshold =      1.0E-07
     mixing beta               =       0.1000
     number of iterations used =           12  local-TF  mixing
     Exchange-correlation= VDW-DF2-B86R
                           (   1   4  26   0   2   0   0)

     celldm(1)=   6.198302  celldm(2)=   0.000000  celldm(3)=  15.243902
     celldm(4)=   0.000000  celldm(5)=   0.000000  celldm(6)=   0.000000

     crystal axes: (cart. coord. in units of alat)
               a(1) = (   1.000000   0.000000   0.000000 )  
               a(2) = (  -0.500000   0.866025   0.000000 )  
               a(3) = (   0.000000   0.000000  15.243902 )  

     reciprocal axes: (cart. coord. in units 2 pi/alat)
               b(1) = (  1.000000  0.577350 -0.000000 )  
               b(2) = (  0.000000  1.154701  0.000000 )  
               b(3) = (  0.000000 -0.000000  0.065600 )  


     PseudoPot. # 1 for W  read from file:
     ./pseudo/W.pbe-spn-kjpaw_psl.1.0.0.UPF
     MD5 check sum: 03c3df5b60893f488392c7401945500a
     Pseudo is Projector augmented-wave + core cor, Zval = 14.0
     Generated using &quot;atomic&quot; code by A. Dal Corso  v.6.2.2
     Shape of augmentation charge: PSQ
     Using radial grid of 1273 points,  6 beta functions with: 
                l(1) =   0
                l(2) =   0
                l(3) =   1
                l(4) =   1
                l(5) =   2
                l(6) =   2
     Q(r) pseudized with 0 coefficients 


     PseudoPot. # 2 for Se read from file:
     ./pseudo/Se.pbe-dn-kjpaw_psl.1.0.0.UPF
     MD5 check sum: ac240dd2bae32a30e0bf3a38df9c8785
     Pseudo is Projector augmented-wave + core cor, Zval = 16.0
     Generated using &quot;atomic&quot; code by A. Dal Corso  v.6.3
     Shape of augmentation charge: PSQ
     Using radial grid of 1211 points,  6 beta functions with: 
                l(1) =   0
                l(2) =   0
                l(3) =   1
                l(4) =   1
                l(5) =   2
                l(6) =   2
     Q(r) pseudized with 0 coefficients 


     atomic species   valence    mass     pseudopotential
     W                14.00   183.84000     W ( 1.00)
     Se               16.00    78.96000     Se( 1.00)

      6 Sym. Ops. (no inversion) found



   Cartesian axes

     site n.     atom                  positions (alat units)
         1        Se     tau(   1) = (  -0.0000005   0.5773506   6.1149390  )
         2        W      tau(   2) = (   0.0000000   0.0000000   6.6383232  )
         3        Se     tau(   3) = (   0.5000005   0.2886748   7.1618445  )
         4        Se     tau(   4) = (  -0.0000005   0.5773506   8.3865091  )
         5        W      tau(   5) = (   0.5000005   0.2886748   8.9097561  )
         6        Se     tau(   6) = (   0.0000000   0.0000000   9.4338415  )

     number of k points=    30  Methfessel-Paxton smearing, width (Ry)=  0.0200
                       cart. coord. in units 2pi/alat
        k(    1) = (   0.0000000   0.0000000   0.0000000), wk =   0.0078125
        k(    2) = (   0.0000000   0.0721688   0.0000000), wk =   0.0468750
        k(    3) = (   0.0000000   0.1443376   0.0000000), wk =   0.0468750
        k(    4) = (   0.0000000   0.2165064   0.0000000), wk =   0.0468750
        k(    5) = (   0.0000000   0.2886751   0.0000000), wk =   0.0468750
        k(    6) = (   0.0000000   0.3608439   0.0000000), wk =   0.0468750
        k(    7) = (   0.0000000   0.4330127   0.0000000), wk =   0.0468750
        k(    8) = (   0.0000000   0.5051815   0.0000000), wk =   0.0468750
        k(    9) = (   0.0000000  -0.5773503   0.0000000), wk =   0.0234375
        k(   10) = (   0.0625000   0.1082532   0.0000000), wk =   0.0468750
        k(   11) = (   0.0625000   0.1804220   0.0000000), wk =   0.0937500
        k(   12) = (   0.0625000   0.2525907   0.0000000), wk =   0.0937500
        k(   13) = (   0.0625000   0.3247595   0.0000000), wk =   0.0937500
        k(   14) = (   0.0625000   0.3969283   0.0000000), wk =   0.0937500
        k(   15) = (   0.0625000   0.4690971   0.0000000), wk =   0.0937500
        k(   16) = (   0.0625000   0.5412659   0.0000000), wk =   0.0937500
        k(   17) = (   0.1250000   0.2165064   0.0000000), wk =   0.0468750
        k(   18) = (   0.1250000   0.2886751   0.0000000), wk =   0.0937500
        k(   19) = (   0.1250000   0.3608439   0.0000000), wk =   0.0937500
        k(   20) = (   0.1250000   0.4330127   0.0000000), wk =   0.0937500
        k(   21) = (   0.1250000   0.5051815   0.0000000), wk =   0.0937500
        k(   22) = (   0.1250000   0.5773503   0.0000000), wk =   0.0468750
        k(   23) = (   0.1875000   0.3247595   0.0000000), wk =   0.0468750
        k(   24) = (   0.1875000   0.3969283   0.0000000), wk =   0.0937500
        k(   25) = (   0.1875000   0.4690971   0.0000000), wk =   0.0937500
        k(   26) = (   0.1875000   0.5412659   0.0000000), wk =   0.0937500
        k(   27) = (   0.2500000   0.4330127   0.0000000), wk =   0.0468750
        k(   28) = (   0.2500000   0.5051815   0.0000000), wk =   0.0937500
        k(   29) = (   0.2500000   0.5773503   0.0000000), wk =   0.0468750
        k(   30) = (   0.3125000   0.5412659   0.0000000), wk =   0.0468750

     Dense  grid:   858263 G-vectors     FFT dimensions: (  50,  50, 768)

     Smooth grid:   304337 G-vectors     FFT dimensions: (  36,  36, 540)

     Estimated max dynamical RAM per process >     350.14 MB

     Estimated total dynamical RAM >       4.10 GB

     Initial potential from superposition of free atoms

     starting charge      91.9986, renormalised to      92.0000

     negative rho (up, down):  1.792E-04 0.000E+00


     %%%%%%%%%%%%%%%%%%%%%%%%%%%%%%%%%%%%%%%%%%%%%%%%%%%%%%%%%%%%%%%%%%%%%%%%
     %                                                                      %
     % You are using vdW-DF, which was implemented by the Thonhauser group. %
     % Please cite the following two papers that made this development      %
     % possible and the two reviews that describe the various versions:     %
     %                                                                      %
     %   T. Thonhauser et al., PRL 115, 136402 (2015).                      %
     %   T. Thonhauser et al., PRB 76, 125112 (2007).                       %
     %   K. Berland et al., Rep. Prog. Phys. 78, 066501 (2015).             %
     %   D.C. Langreth et al., J. Phys.: Condens. Matter 21, 084203 (2009). %
     %                                                                      %
     % If you are calculating stress with vdW-DF, please also cite:         %
     %                                                                      %
     %   R. Sabatini et al., J. Phys.: Condens. Matter 24, 424209 (2012).   %
     %                                                                      %
     %%%%%%%%%%%%%%%%%%%%%%%%%%%%%%%%%%%%%%%%%%%%%%%%%%%%%%%%%%%%%%%%%%%%%%%%

     %%%%%%%%%%%%%%%%%%%%%%%%%%%%%%%%%%%%%%%%%%%%%%%%%%%%%%%%%%%%%%%%%%%%%%%%
     %                                                                      %
     %  vdW-DF NEWS:                                                        %
     %                                                                      %
     %  * vdW-DF3 is now available. DOI: 10.1021/acs.jctc.0c00471           %
     %    use with input_dft = 'vdW-DF3-opt1' or 'vdW-DF3-opt2'             %
     %                                                                      %
     %  * Unscreened and range-separated hybrid vdW-DF-cx functionals       %
     %    DOI: 10.1063/1.4986522 and 10.1088/1361-648X/ac2ad2               %
     %    use with input_dft = 'vdW-DF-cx0'    and 'vdW-DF-ahcx'            %
     %  * Unscreened and range-separated hybrid vdW-DF2-b86r functionals    %
     %    DOI: 10.1063/1.4986522 and DOI: 10.1103/PhysRevX.12.041003        %
     %    use with input_dft = 'vdW-DF2-br0' and 'vdW-DF2-ahbr'             %
     %                                                                      %
     %%%%%%%%%%%%%%%%%%%%%%%%%%%%%%%%%%%%%%%%%%%%%%%%%%%%%%%%%%%%%%%%%%%%%%%%


     Starting wfcs are   62 randomized atomic wfcs
     Checking if some PAW data can be deallocated... 

     total cpu time spent up to now is       28.7 secs

     per-process dynamical memory:   142.9 Mb

     Self-consistent Calculation

     iteration #  1     ecut=    80.00 Ry     beta= 0.10
     Davidson diagonalization with overlap
     ethr =  1.00E-02,  avg # of iterations =  3.9

     Threshold (ethr) on eigenvalues was too large:
     Diagonalizing with lowered threshold

     Davidson diagonalization with overlap
     ethr =  1.06E-04,  avg # of iterations =  6.1

     negative rho (up, down):  9.491E-05 0.000E+00

     total cpu time spent up to now is      135.9 secs

     total energy              =   -3114.00189724 Ry
     estimated scf accuracy    <       0.12574252 Ry

     iteration #  2     ecut=    80.00 Ry     beta= 0.10
     Davidson diagonalization with overlap
     ethr =  1.37E-04,  avg # of iterations =  1.0

     negative rho (up, down):  7.384E-05 0.000E+00

     total cpu time spent up to now is      174.9 secs

     total energy              =   -3113.95741501 Ry
     estimated scf accuracy    <       0.11350684 Ry

     iteration #  3     ecut=    80.00 Ry     beta= 0.10
     Davidson diagonalization with overlap
     ethr =  1.23E-04,  avg # of iterations =  3.8

     negative rho (up, down):  2.976E-05 0.000E+00

     total cpu time spent up to now is      225.6 secs

     total energy              =   -3113.97241428 Ry
     estimated scf accuracy    <       0.02159815 Ry

     iteration #  4     ecut=    80.00 Ry     beta= 0.10
     Davidson diagonalization with overlap
     ethr =  2.35E-05,  avg # of iterations =  2.5

     negative rho (up, down):  3.780E-06 0.000E+00

     total cpu time spent up to now is      271.4 secs

     total energy              =   -3113.96861872 Ry
     estimated scf accuracy    <       0.01882011 Ry

     iteration #  5     ecut=    80.00 Ry     beta= 0.10
     Davidson diagonalization with overlap
     ethr =  2.05E-05,  avg # of iterations =  3.8

     negative rho (up, down):  2.969E-06 0.000E+00

     total cpu time spent up to now is      320.3 secs

     total energy              =   -3113.97013054 Ry
     estimated scf accuracy    <       0.00256666 Ry

     iteration #  6     ecut=    80.00 Ry     beta= 0.10
     Davidson diagonalization with overlap
     ethr =  2.79E-06,  avg # of iterations =  7.5

     negative rho (up, down):  5.254E-07 0.000E+00

     total cpu time spent up to now is      368.0 secs

     total energy              =   -3113.96942433 Ry
     estimated scf accuracy    <       0.00228277 Ry

     iteration #  7     ecut=    80.00 Ry     beta= 0.10
     Davidson diagonalization with overlap
     ethr =  2.48E-06,  avg # of iterations =  5.0

     negative rho (up, down):  3.404E-07 0.000E+00

     total cpu time spent up to now is      419.4 secs

     total energy              =   -3113.96943053 Ry
     estimated scf accuracy    <       0.00235928 Ry

     iteration #  8     ecut=    80.00 Ry     beta= 0.10
     Davidson diagonalization with overlap
     ethr =  2.48E-06,  avg # of iterations =  1.9

     negative rho (up, down):  7.684E-07 0.000E+00

     total cpu time spent up to now is      464.9 secs

     total energy              =   -3113.96939690 Ry
     estimated scf accuracy    <       0.00096687 Ry

     iteration #  9     ecut=    80.00 Ry     beta= 0.10
     Davidson diagonalization with overlap
     ethr =  1.05E-06,  avg # of iterations =  3.9

     negative rho (up, down):  8.127E-07 0.000E+00

     total cpu time spent up to now is      511.3 secs

     total energy              =   -3113.96944023 Ry
     estimated scf accuracy    <       0.00061480 Ry

     iteration # 10     ecut=    80.00 Ry     beta= 0.10
     Davidson diagonalization with overlap
     ethr =  6.68E-07,  avg # of iterations =  1.4

     negative rho (up, down):  4.711E-08 0.000E+00

     total cpu time spent up to now is      552.1 secs

     total energy              =   -3113.96937234 Ry
     estimated scf accuracy    <       0.00058033 Ry

     iteration # 11     ecut=    80.00 Ry     beta= 0.10
     Davidson diagonalization with overlap
     ethr =  6.31E-07,  avg # of iterations =  2.7

     negative rho (up, down):  3.167E-04 0.000E+00

     total cpu time spent up to now is      593.7 secs

     total energy              =   -3113.96933206 Ry
     estimated scf accuracy    <       0.00038203 Ry

     iteration # 12     ecut=    80.00 Ry     beta= 0.10
     Davidson diagonalization with overlap
     ethr =  4.15E-07,  avg # of iterations =  3.3

     negative rho (up, down):  3.892E-04 0.000E+00

     total cpu time spent up to now is      636.1 secs

     total energy              =   -3113.96933935 Ry
     estimated scf accuracy    <       0.00035223 Ry

     iteration # 13     ecut=    80.00 Ry     beta= 0.10
     Davidson diagonalization with overlap
     ethr =  3.83E-07,  avg # of iterations =  2.1

     negative rho (up, down):  1.863E-03 0.000E+00

     total cpu time spent up to now is      676.8 secs

     total energy              =   -3113.96935477 Ry
     estimated scf accuracy    <       0.00025283 Ry

     iteration # 14     ecut=    80.00 Ry     beta= 0.10
     Davidson diagonalization with overlap
     ethr =  2.75E-07,  avg # of iterations =  4.1

     negative rho (up, down):  2.353E-03 0.000E+00

     total cpu time spent up to now is      722.8 secs

     total energy              =   -3113.96935205 Ry
     estimated scf accuracy    <       0.00025924 Ry

     iteration # 15     ecut=    80.00 Ry     beta= 0.10
     Davidson diagonalization with overlap
     ethr =  2.75E-07,  avg # of iterations =  3.7

     negative rho (up, down):  2.257E-03 0.000E+00

     total cpu time spent up to now is      774.5 secs

     total energy              =   -3113.96937809 Ry
     estimated scf accuracy    <       0.00033017 Ry

     iteration # 16     ecut=    80.00 Ry     beta= 0.10
     Davidson diagonalization with overlap
     ethr =  2.75E-07,  avg # of iterations =  1.0

     negative rho (up, down):  3.522E-03 0.000E+00

     total cpu time spent up to now is      813.9 secs

     total energy              =   -3113.96936680 Ry
     estimated scf accuracy    <       0.00030090 Ry

     iteration # 17     ecut=    80.00 Ry     beta= 0.10
     Davidson diagonalization with overlap
     ethr =  2.75E-07,  avg # of iterations =  2.9

     negative rho (up, down):  1.396E-03 0.000E+00

     total cpu time spent up to now is      856.5 secs

     total energy              =   -3113.96934115 Ry
     estimated scf accuracy    <       0.00034258 Ry

     iteration # 18     ecut=    80.00 Ry     beta= 0.10
     Davidson diagonalization with overlap
     ethr =  2.75E-07,  avg # of iterations =  3.7

     negative rho (up, down):  1.222E-03 0.000E+00

     total cpu time spent up to now is      899.7 secs

     total energy              =   -3113.96934350 Ry
     estimated scf accuracy    <       0.00017839 Ry

     iteration # 19     ecut=    80.00 Ry     beta= 0.10
     Davidson diagonalization with overlap
     ethr =  1.94E-07,  avg # of iterations =  1.0

     negative rho (up, down):  3.759E-03 0.000E+00

     total cpu time spent up to now is      939.6 secs

     total energy              =   -3113.96924222 Ry
     estimated scf accuracy    <       0.00017894 Ry

     iteration # 20     ecut=    80.00 Ry     beta= 0.10
     Davidson diagonalization with overlap
     ethr =  1.94E-07,  avg # of iterations =  5.9

     negative rho (up, down):  3.881E-03 0.000E+00

     total cpu time spent up to now is      988.6 secs

     total energy              =   -3113.96924876 Ry
     estimated scf accuracy    <       0.00016571 Ry

     iteration # 21     ecut=    80.00 Ry     beta= 0.10
     Davidson diagonalization with overlap
     ethr =  1.80E-07,  avg # of iterations =  1.4

     negative rho (up, down):  4.445E-03 0.000E+00

     total cpu time spent up to now is     1030.0 secs

     total energy              =   -3113.96928635 Ry
     estimated scf accuracy    <       0.00011262 Ry

     iteration # 22     ecut=    80.00 Ry     beta= 0.10
     Davidson diagonalization with overlap
     ethr =  1.22E-07,  avg # of iterations =  2.8

     negative rho (up, down):  4.142E-03 0.000E+00

     total cpu time spent up to now is     1072.4 secs

     total energy              =   -3113.96928300 Ry
     estimated scf accuracy    <       0.00008419 Ry

     iteration # 23     ecut=    80.00 Ry     beta= 0.10
     Davidson diagonalization with overlap
     ethr =  9.15E-08,  avg # of iterations =  2.0

     negative rho (up, down):  3.307E-03 0.000E+00

     total cpu time spent up to now is     1119.2 secs

     total energy              =   -3113.96926520 Ry
     estimated scf accuracy    <       0.00005157 Ry

     iteration # 24     ecut=    80.00 Ry     beta= 0.10
     Davidson diagonalization with overlap
     ethr =  5.61E-08,  avg # of iterations =  3.6

     negative rho (up, down):  3.462E-03 0.000E+00

     total cpu time spent up to now is     1162.1 secs

     total energy              =   -3113.96928035 Ry
     estimated scf accuracy    <       0.00004617 Ry

     iteration # 25     ecut=    80.00 Ry     beta= 0.10
     Davidson diagonalization with overlap
     ethr =  5.02E-08,  avg # of iterations =  3.3

     negative rho (up, down):  3.440E-03 0.000E+00

     total cpu time spent up to now is     1207.0 secs

     total energy              =   -3113.96928557 Ry
     estimated scf accuracy    <       0.00003071 Ry

     iteration # 26     ecut=    80.00 Ry     beta= 0.10
     Davidson diagonalization with overlap
     ethr =  3.34E-08,  avg # of iterations =  1.0

     negative rho (up, down):  1.742E-03 0.000E+00

     total cpu time spent up to now is     1245.7 secs

     total energy              =   -3113.96927758 Ry
     estimated scf accuracy    <       0.00002226 Ry

     iteration # 27     ecut=    80.00 Ry     beta= 0.10
     Davidson diagonalization with overlap
     ethr =  2.42E-08,  avg # of iterations =  4.4

     negative rho (up, down):  1.445E-03 0.000E+00

     total cpu time spent up to now is     1292.9 secs

     total energy              =   -3113.96927903 Ry
     estimated scf accuracy    <       0.00000940 Ry

     iteration # 28     ecut=    80.00 Ry     beta= 0.10
     Davidson diagonalization with overlap
     ethr =  1.02E-08,  avg # of iterations =  3.0

     negative rho (up, down):  1.212E-03 0.000E+00

     total cpu time spent up to now is     1335.6 secs

     total energy              =   -3113.96928084 Ry
     estimated scf accuracy    <       0.00000713 Ry

     iteration # 29     ecut=    80.00 Ry     beta= 0.10
     Davidson diagonalization with overlap
     ethr =  7.75E-09,  avg # of iterations =  1.9

     negative rho (up, down):  4.229E-04 0.000E+00

     total cpu time spent up to now is     1377.7 secs

     total energy              =   -3113.96928514 Ry
     estimated scf accuracy    <       0.00000606 Ry

     iteration # 30     ecut=    80.00 Ry     beta= 0.10
     Davidson diagonalization with overlap
     ethr =  6.59E-09,  avg # of iterations =  4.5

     negative rho (up, down):  3.912E-04 0.000E+00

     total cpu time spent up to now is     1425.2 secs

     total energy              =   -3113.96928344 Ry
     estimated scf accuracy    <       0.00000214 Ry

     iteration # 31     ecut=    80.00 Ry     beta= 0.10
     Davidson diagonalization with overlap
     ethr =  2.33E-09,  avg # of iterations =  2.8

     negative rho (up, down):  3.105E-04 0.000E+00

     total cpu time spent up to now is     1475.7 secs

     total energy              =   -3113.96928518 Ry
     estimated scf accuracy    <       0.00000034 Ry

     iteration # 32     ecut=    80.00 Ry     beta= 0.10
     Davidson diagonalization with overlap
     ethr =  3.69E-10,  avg # of iterations =  2.1

     negative rho (up, down):  3.014E-04 0.000E+00

     total cpu time spent up to now is     1523.9 secs

     total energy              =   -3113.96928600 Ry
     estimated scf accuracy    <       0.00000029 Ry

     iteration # 33     ecut=    80.00 Ry     beta= 0.10
     Davidson diagonalization with overlap
     ethr =  3.13E-10,  avg # of iterations =  1.4

     negative rho (up, down):  1.838E-04 0.000E+00

     total cpu time spent up to now is     1565.3 secs

     total energy              =   -3113.96928713 Ry
     estimated scf accuracy    <       0.00000015 Ry

     iteration # 34     ecut=    80.00 Ry     beta= 0.10
     Davidson diagonalization with overlap
     ethr =  1.63E-10,  avg # of iterations =  2.9

     negative rho (up, down):  1.768E-04 0.000E+00

     total cpu time spent up to now is     1618.4 secs

     End of self-consistent calculation

          k = 0.0000 0.0000 0.0000 ( 38015 PWs)   bands (ev):

   -74.8855 -74.8839 -48.1560 -48.1560 -48.1547 -48.1547 -48.1525 -48.1525
   -48.1505 -48.1505 -48.1263 -48.1263 -48.1237 -48.1237 -48.1232 -48.1232
   -48.1196 -48.1196 -48.1127 -48.1097 -48.1094 -48.1054 -39.0790 -39.0782
   -39.0434 -39.0434 -39.0407 -39.0407 -15.5268 -15.5039 -14.4639 -14.4268
    -7.0669  -6.9022  -3.5902  -3.3575  -3.3575  -3.3505  -3.3505  -3.0954
    -1.4538  -1.1376  -0.6932  -0.6932  -0.6893  -0.6893   0.1997   0.1997
     0.2104   0.2104   3.3974   3.3983   3.3983   3.4161   3.4161

          k = 0.0000 0.0722 0.0000 ( 37975 PWs)   bands (ev):

   -74.8851 -74.8835 -48.1560 -48.1558 -48.1547 -48.1545 -48.1525 -48.1523
   -48.1505 -48.1503 -48.1264 -48.1264 -48.1238 -48.1237 -48.1233 -48.1232
   -48.1197 -48.1196 -48.1126 -48.1096 -48.1094 -48.1053 -39.0772 -39.0763
   -39.0525 -39.0498 -39.0455 -39.0428 -15.4657 -15.4428 -14.4355 -14.3990
    -6.9846  -6.8199  -3.9613  -3.7590  -3.3228  -3.3158  -3.0557  -2.7756
    -1.4955  -1.2812  -0.9966  -0.9328  -0.9227  -0.9177   0.1736   0.2280
     0.4012   0.4115   3.0687   3.0811   3.3546   3.3763   3.5460

          k = 0.0000 0.1443 0.0000 ( 37895 PWs)   bands (ev):

   -74.8840 -74.8823 -48.1559 -48.1553 -48.1547 -48.1540 -48.1524 -48.1518
   -48.1505 -48.1498 -48.1266 -48.1264 -48.1239 -48.1238 -48.1235 -48.1233
   -48.1198 -48.1197 -48.1123 -48.1093 -48.1091 -48.1051 -39.0783 -39.0757
   -39.0720 -39.0711 -39.0516 -39.0489 -15.2866 -15.2638 -14.3525 -14.3179
    -6.7450  -6.5808  -4.4371  -4.2739  -3.2399  -3.2328  -2.8305  -2.5808
    -2.0574  -2.0166  -1.3070  -1.3004  -1.2821  -1.0742   0.1412   0.2805
     0.7040   0.7162   2.4687   2.5677   3.2747   3.3029   3.8503

          k = 0.0000 0.2165 0.0000 ( 37851 PWs)   bands (ev):

   -74.8823 -74.8806 -48.1559 -48.1547 -48.1545 -48.1532 -48.1524 -48.1510
   -48.1505 -48.1490 -48.1269 -48.1265 -48.1242 -48.1238 -48.1238 -48.1234
   -48.1201 -48.1197 -48.1119 -48.1089 -48.1087 -48.1047 -39.1166 -39.1139
   -39.0643 -39.0634 -39.0606 -39.0579 -15.0030 -14.9806 -14.2213 -14.1897
    -6.3763  -6.2159  -4.8696  -4.7380  -3.3116  -3.2905  -3.1772  -3.1698
    -2.5617  -2.3400  -1.6003  -1.5922  -1.3946  -1.2568   0.1477   0.3479
     0.9050   0.9203   2.1044   2.3431   3.2448   3.2793   4.2452

          k = 0.0000 0.2887 0.0000 ( 37919 PWs)   bands (ev):

   -74.8803 -74.8786 -48.1559 -48.1547 -48.1536 -48.1525 -48.1524 -48.1505
   -48.1501 -48.1482 -48.1273 -48.1267 -48.1245 -48.1242 -48.1239 -48.1235
   -48.1204 -48.1198 -48.1115 -48.1085 -48.1083 -48.1043 -39.1615 -39.1588
   -39.0712 -39.0685 -39.0552 -39.0543 -14.6417 -14.6201 -14.0509 -14.0232
    -5.9755  -5.8376  -5.1735  -5.0624  -4.3667  -4.3487  -3.2233  -3.2153
    -2.7101  -2.5375  -1.6992  -1.6887  -1.6735  -1.5956   0.2823   0.5128
     1.0093   1.0255   2.1893   2.5607   3.2863   3.3277   4.7234

          k = 0.0000 0.3608 0.0000 ( 37933 PWs)   bands (ev):

   -74.8782 -74.8766 -48.1560 -48.1547 -48.1527 -48.1525 -48.1515 -48.1505
   -48.1493 -48.1473 -48.1277 -48.1268 -48.1248 -48.1245 -48.1240 -48.1237
   -48.1208 -48.1199 -48.1111 -48.1081 -48.1078 -48.1038 -39.2061 -39.2033
   -39.0818 -39.0791 -39.0460 -39.0452 -14.2561 -14.2364 -13.8433 -13.8202
    -5.9375  -5.8884  -5.3668  -5.3119  -4.9780  -4.8552  -3.3728  -3.3643
    -3.0265  -2.9133  -1.9760  -1.9050  -1.6407  -1.6265   0.6214   0.8394
     1.1041   1.1175   2.5955   3.0351   3.3560   3.4051   4.9612

          k = 0.0000 0.4330 0.0000 ( 37998 PWs)   bands (ev):

   -74.8765 -74.8749 -48.1561 -48.1547 -48.1526 -48.1520 -48.1508 -48.1505
   -48.1485 -48.1466 -48.1280 -48.1269 -48.1251 -48.1248 -48.1241 -48.1238
   -48.1210 -48.1200 -48.1107 -48.1077 -48.1075 -48.1035 -39.2436 -39.2408
   -39.0908 -39.0881 -39.0382 -39.0374 -13.9494 -13.9335 -13.5780 -13.5593
    -6.5313  -6.5152  -5.6472  -5.5711  -4.7388  -4.6563  -3.5376  -3.5287
    -3.3192  -3.2067  -2.1587  -2.0986  -1.5478  -1.5291   1.1033   1.2460
     1.2543   1.2807   3.1009   3.4141   3.4571   3.4702   4.4993

          k = 0.0000 0.5052 0.0000 ( 38048 PWs)   bands (ev):

   -74.8754 -74.8738 -48.1561 -48.1547 -48.1526 -48.1515 -48.1505 -48.1503
   -48.1480 -48.1461 -48.1282 -48.1270 -48.1253 -48.1251 -48.1242 -48.1238
   -48.1212 -48.1201 -48.1105 -48.1075 -48.1072 -48.1032 -39.2685 -39.2657
   -39.0968 -39.0940 -39.0330 -39.0322 -13.7853 -13.7739 -13.3072 -13.2933
    -7.0947  -7.0800  -5.6541  -5.5979  -4.7977  -4.7468  -3.6545  -3.6454
    -3.2575  -3.1379  -2.2685  -2.2262  -1.4885  -1.4662   1.3976   1.4022
     1.6016   1.7206   3.3330   3.4478   3.5089   3.5206   4.3462

          k = 0.0000-0.5774 0.0000 ( 38024 PWs)   bands (ev):

   -74.8750 -74.8734 -48.1562 -48.1546 -48.1526 -48.1513 -48.1505 -48.1501
   -48.1479 -48.1459 -48.1283 -48.1270 -48.1253 -48.1251 -48.1242 -48.1238
   -48.1212 -48.1201 -48.1104 -48.1074 -48.1071 -48.1031 -39.2772 -39.2744
   -39.0989 -39.0961 -39.0312 -39.0304 -13.7344 -13.7251 -13.1913 -13.1804
    -7.3066  -7.2939  -5.6044  -5.5774  -4.9203  -4.8669  -3.6959  -3.6868
    -3.1330  -3.0323  -2.3188  -2.2823  -1.4702  -1.4466   1.4646   1.4688
     1.8515   1.9134   3.3680   3.4584   3.5212   3.5224   4.0813

          k = 0.0625 0.1083 0.0000 ( 37895 PWs)   bands (ev):

   -74.8843 -74.8827 -48.1559 -48.1554 -48.1547 -48.1542 -48.1524 -48.1520
   -48.1505 -48.1500 -48.1265 -48.1264 -48.1239 -48.1238 -48.1234 -48.1233
   -48.1198 -48.1196 -48.1124 -48.1094 -48.1092 -48.1051 -39.0737 -39.0729
   -39.0696 -39.0669 -39.0499 -39.0472 -15.3455 -15.3227 -14.3798 -14.3446
    -6.8233  -6.6588  -4.3093  -4.1357  -3.2717  -3.2648  -2.8620  -2.5852
    -1.7971  -1.7615  -1.3221  -1.3079  -1.1834  -0.9810   0.2217   0.3323
     0.5534   0.5636   2.7025   2.7634   3.2225   3.2354   3.7636

          k = 0.0625 0.1804 0.0000 ( 37885 PWs)   bands (ev):

   -74.8829 -74.8813 -48.1559 -48.1548 -48.1547 -48.1536 -48.1524 -48.1513
   -48.1505 -48.1494 -48.1268 -48.1265 -48.1241 -48.1238 -48.1237 -48.1234
   -48.1200 -48.1197 -48.1121 -48.1091 -48.1089 -48.1048 -39.1010 -39.0983
   -39.0674 -39.0665 -39.0580 -39.0553 -15.1138 -15.0912 -14.2728 -14.2401
    -6.5152  -6.3523  -4.7211  -4.5786  -3.2635  -3.2565  -2.8745  -2.7574
    -2.5130  -2.4104  -1.6778  -1.6354  -1.2192  -1.0300   0.2654   0.4028
     0.6578   0.6869   2.3820   2.5380   3.0705   3.0929   4.1005

          k = 0.0625 0.2526 0.0000 ( 37916 PWs)   bands (ev):

   -74.8811 -74.8794 -48.1559 -48.1547 -48.1540 -48.1528 -48.1524 -48.1505
   -48.1505 -48.1486 -48.1271 -48.1266 -48.1244 -48.1240 -48.1239 -48.1235
   -48.1203 -48.1198 -48.1117 -48.1087 -48.1085 -48.1044 -39.1416 -39.1389
   -39.0691 -39.0664 -39.0587 -39.0578 -14.7895 -14.7675 -14.1230 -14.0937
    -6.1064  -5.9524  -5.0786  -4.9614  -3.9073  -3.8982  -3.2113  -3.1898
    -2.6696  -2.5345  -1.9362  -1.8963  -1.2628  -1.1455   0.2063   0.3627
     0.8436   0.9224   2.2776   2.5135   3.0831   3.1208   4.5357

          k = 0.0625 0.3248 0.0000 ( 37964 PWs)   bands (ev):

   -74.8790 -74.8774 -48.1559 -48.1546 -48.1532 -48.1524 -48.1519 -48.1505
   -48.1497 -48.1477 -48.1275 -48.1268 -48.1247 -48.1244 -48.1240 -48.1236
   -48.1206 -48.1199 -48.1113 -48.1082 -48.1080 -48.1040 -39.1853 -39.1826
   -39.0806 -39.0779 -39.0496 -39.0488 -14.4092 -14.3885 -13.9383 -13.9133
    -5.8080  -5.7078  -5.2386  -5.1455  -4.8497  -4.7973  -3.4444  -3.4221
    -2.7639  -2.6663  -2.2514  -2.2403  -1.3003  -1.2298   0.3080   0.4788
     1.0977   1.1697   2.4127   2.6739   3.2062   3.3156   5.0381

          k = 0.0625 0.3969 0.0000 ( 37981 PWs)   bands (ev):

   -74.8772 -74.8755 -48.1559 -48.1546 -48.1524 -48.1524 -48.1512 -48.1504
   -48.1489 -48.1470 -48.1279 -48.1269 -48.1250 -48.1247 -48.1241 -48.1237
   -48.1209 -48.1200 -48.1108 -48.1078 -48.1076 -48.1036 -39.2254 -39.2226
   -39.0913 -39.0886 -39.0412 -39.0404 -14.0501 -14.0322 -13.7095 -13.6890
    -6.1445  -6.1294  -5.5549  -5.4816  -4.8302  -4.7135  -3.6970  -3.6676
    -3.0123  -2.9511  -2.4860  -2.4630  -1.2806  -1.2396   0.6129   0.7528
     1.3690   1.4311   2.7111   2.8885   3.3856   3.5993   4.8645

          k = 0.0625 0.4691 0.0000 ( 38057 PWs)   bands (ev):

   -74.8758 -74.8741 -48.1560 -48.1545 -48.1525 -48.1518 -48.1506 -48.1504
   -48.1483 -48.1464 -48.1281 -48.1270 -48.1252 -48.1250 -48.1242 -48.1238
   -48.1211 -48.1201 -48.1105 -48.1075 -48.1073 -48.1033 -39.2558 -39.2530
   -39.0995 -39.0968 -39.0347 -39.0339 -13.8198 -13.8064 -13.4273 -13.4113
    -6.7966  -6.7809  -5.6540  -5.5882  -4.6863  -4.6299  -3.8150  -3.7795
    -3.1866  -3.1129  -2.5825  -2.5609  -1.2752  -1.2560   1.0148   1.1019
     1.6395   1.6999   2.9758   3.0516   3.5382   3.6844   4.5826

          k = 0.0625 0.5413 0.0000 ( 38034 PWs)   bands (ev):

   -74.8750 -74.8734 -48.1560 -48.1545 -48.1525 -48.1515 -48.1503 -48.1503
   -48.1480 -48.1461 -48.1283 -48.1270 -48.1253 -48.1251 -48.1242 -48.1239
   -48.1212 -48.1201 -48.1104 -48.1074 -48.1072 -48.1031 -39.2722 -39.2694
   -39.1040 -39.1012 -39.0312 -39.0304 -13.7182 -13.7084 -13.2185 -13.2070
    -7.1948  -7.1815  -5.6138  -5.5767  -4.8410  -4.7886  -3.8130  -3.7994
    -3.1158  -3.0341  -2.6276  -2.6175  -1.2979  -1.2875   1.3514   1.3806
     1.8107   1.8650   3.1409   3.1965   3.4256   3.6044   4.3757

          k = 0.1250 0.2165 0.0000 ( 37933 PWs)   bands (ev):

   -74.8813 -74.8797 -48.1558 -48.1546 -48.1542 -48.1530 -48.1523 -48.1507
   -48.1504 -48.1488 -48.1271 -48.1266 -48.1243 -48.1240 -48.1239 -48.1235
   -48.1202 -48.1198 -48.1118 -48.1087 -48.1085 -48.1045 -39.1334 -39.1306
   -39.0698 -39.0671 -39.0598 -39.0588 -14.8401 -14.8179 -14.1477 -14.1179
    -6.1532  -5.9946  -5.0323  -4.9121  -3.7395  -3.7330  -3.0405  -2.9221
    -2.9018  -2.8935  -1.9592  -1.8697  -1.1165  -0.9449   0.2539   0.3014
     0.6374   0.8131   2.6182   2.6794   2.7041   2.8604   4.4744

          k = 0.1250 0.2887 0.0000 ( 37936 PWs)   bands (ev):

   -74.8795 -74.8778 -48.1557 -48.1545 -48.1535 -48.1523 -48.1522 -48.1503
   -48.1500 -48.1481 -48.1274 -48.1267 -48.1246 -48.1243 -48.1241 -48.1236
   -48.1205 -48.1200 -48.1113 -48.1083 -48.1081 -48.1041 -39.1706 -39.1679
   -39.0835 -39.0808 -39.0515 -39.0507 -14.4905 -14.4693 -13.9873 -13.9613
    -5.7316  -5.5945  -5.2760  -5.1743  -4.5515  -4.5376  -3.4663  -3.4143
    -2.9847  -2.9649  -2.2257  -2.1725  -0.9924  -0.8604   0.0413   0.1595
     1.0233   1.1750   2.3840   2.4104   2.9772   3.2436   4.9482

          k = 0.1250 0.3608 0.0000 ( 38000 PWs)   bands (ev):

   -74.8776 -74.8760 -48.1557 -48.1544 -48.1528 -48.1522 -48.1516 -48.1502
   -48.1493 -48.1474 -48.1277 -48.1269 -48.1248 -48.1246 -48.1242 -48.1237
   -48.1208 -48.1201 -48.1110 -48.1079 -48.1077 -48.1037 -39.2074 -39.2046
   -39.0976 -39.0949 -39.0432 -39.0423 -14.1145 -14.0953 -13.7970 -13.7755
    -5.7422  -5.7094  -5.4000  -5.3494  -4.9717  -4.8327  -3.8454  -3.8085
    -3.0889  -3.0694  -2.6472  -2.6215  -0.8960  -0.8051   0.1370   0.2815
     1.4278   1.5250   2.2867   2.3481   3.3189   3.6269   5.3928

          k = 0.1250 0.4330 0.0000 ( 38048 PWs)   bands (ev):

   -74.8761 -74.8744 -48.1557 -48.1542 -48.1522 -48.1521 -48.1510 -48.1501
   -48.1487 -48.1468 -48.1280 -48.1270 -48.1251 -48.1248 -48.1243 -48.1239
   -48.1210 -48.1202 -48.1106 -48.1076 -48.1074 -48.1034 -39.2383 -39.2355
   -39.1097 -39.1070 -39.0360 -39.0352 -13.8194 -13.8041 -13.5505 -13.5334
    -6.3619  -6.3471  -5.6010  -5.5343  -4.6088  -4.5173  -4.1004  -4.0519
    -3.2173  -3.2011  -3.0169  -2.9914  -0.8992  -0.8421   0.4962   0.6215
     1.7353   1.7822   2.3768   2.4587   3.6135   3.8548   5.0670

          k = 0.1250 0.5052 0.0000 ( 38027 PWs)   bands (ev):

   -74.8750 -74.8734 -48.1556 -48.1541 -48.1521 -48.1518 -48.1506 -48.1500
   -48.1483 -48.1464 -48.1282 -48.1271 -48.1252 -48.1250 -48.1243 -48.1240
   -48.1211 -48.1202 -48.1104 -48.1074 -48.1072 -48.1031 -39.2587 -39.2560
   -39.1178 -39.1151 -39.0313 -39.0305 -13.6708 -13.6600 -13.2919 -13.2793
    -6.8822  -6.8684  -5.6127  -5.5674  -4.6466  -4.5985  -4.0678  -4.0214
    -3.3071  -3.2902  -3.1294  -3.0877  -0.9792  -0.9381   0.9708   1.0534
     1.8275   1.8513   2.5706   2.6497   3.6098   3.7855   4.8589

          k = 0.1250 0.5774 0.0000 ( 37968 PWs)   bands (ev):

   -74.8746 -74.8730 -48.1556 -48.1541 -48.1521 -48.1516 -48.1504 -48.1500
   -48.1481 -48.1462 -48.1282 -48.1271 -48.1252 -48.1251 -48.1243 -48.1240
   -48.1212 -48.1202 -48.1103 -48.1073 -48.1071 -48.1030 -39.2659 -39.2631
   -39.1206 -39.1179 -39.0296 -39.0288 -13.6249 -13.6162 -13.1830 -13.1733
    -7.0749  -7.0622  -5.5845  -5.5630  -4.7535  -4.7016  -4.0367  -4.0092
    -3.3262  -3.3102  -3.1002  -3.0567  -1.0300  -0.9907   1.2977   1.3141
     1.7298   1.7644   2.7304   2.7542   3.4796   3.6594   4.8119

          k = 0.1875 0.3248 0.0000 ( 37987 PWs)   bands (ev):

   -74.8778 -74.8761 -48.1555 -48.1542 -48.1530 -48.1520 -48.1518 -48.1500
   -48.1495 -48.1476 -48.1277 -48.1269 -48.1248 -48.1245 -48.1242 -48.1237
   -48.1207 -48.1201 -48.1110 -48.1080 -48.1078 -48.1037 -39.1993 -39.1965
   -39.1017 -39.0989 -39.0438 -39.0430 -14.1367 -14.1171 -13.8275 -13.8056
    -5.4802  -5.4097  -5.3932  -5.3668  -5.0410  -4.9121  -3.8535  -3.8037
    -3.3898  -3.3809  -2.5194  -2.5073  -0.6646  -0.5414  -0.1206   0.0133
     1.4225   1.5466   2.1178   2.1269   3.3049   3.6321   5.4471

          k = 0.1875 0.3969 0.0000 ( 38014 PWs)   bands (ev):

   -74.8762 -74.8746 -48.1553 -48.1539 -48.1526 -48.1518 -48.1513 -48.1498
   -48.1491 -48.1471 -48.1279 -48.1270 -48.1250 -48.1248 -48.1244 -48.1239
   -48.1209 -48.1203 -48.1107 -48.1076 -48.1074 -48.1034 -39.2240 -39.2212
   -39.1201 -39.1173 -39.0367 -39.0359 -13.7924 -13.7758 -13.6450 -13.6276
    -5.9422  -5.9314  -5.5527  -5.4894  -4.6765  -4.5442  -4.2005  -4.1588
    -3.7358  -3.7239  -2.9228  -2.9106  -0.4814  -0.3949   0.0241   0.1503
     1.7548   1.8259   2.0120   2.0708   3.6526   3.9401   5.5597

          k = 0.1875 0.4691 0.0000 ( 38010 PWs)   bands (ev):

   -74.8750 -74.8734 -48.1552 -48.1537 -48.1522 -48.1516 -48.1510 -48.1496
   -48.1487 -48.1468 -48.1280 -48.1272 -48.1251 -48.1249 -48.1245 -48.1240
   -48.1210 -48.1203 -48.1104 -48.1074 -48.1072 -48.1032 -39.2419 -39.2391
   -39.1350 -39.1322 -39.0313 -39.0305 -13.5960 -13.5840 -13.3918 -13.3786
    -6.4577  -6.4461  -5.5921  -5.5480  -4.4622  -4.4204  -4.2757  -4.1943
    -3.9908  -3.9707  -3.2160  -3.2125  -0.5592  -0.4997   0.4784   0.5651
     1.8375   1.8630   2.1471   2.2578   3.8209   3.9709   5.2481

          k = 0.1875 0.5413 0.0000 ( 38010 PWs)   bands (ev):

   -74.8743 -74.8727 -48.1551 -48.1536 -48.1520 -48.1515 -48.1508 -48.1494
   -48.1485 -48.1466 -48.1281 -48.1273 -48.1252 -48.1250 -48.1245 -48.1241
   -48.1211 -48.1204 -48.1103 -48.1073 -48.1071 -48.1030 -39.2513 -39.2485
   -39.1433 -39.1406 -39.0283 -39.0275 -13.5154 -13.5071 -13.2060 -13.1971
    -6.7579  -6.7454  -5.5880  -5.5662  -4.5916  -4.5465  -4.1962  -4.1553
    -4.0700  -4.0470  -3.2742  -3.2609  -0.6635  -0.6112   0.9707   1.0103
     1.6122   1.6282   2.4261   2.5152   3.6015   3.7781   5.1866

          k = 0.2500 0.4330 0.0000 ( 38031 PWs)   bands (ev):

   -74.8750 -74.8734 -48.1549 -48.1535 -48.1524 -48.1514 -48.1512 -48.1493
   -48.1489 -48.1470 -48.1280 -48.1272 -48.1251 -48.1248 -48.1245 -48.1241
   -48.1210 -48.1204 -48.1104 -48.1074 -48.1072 -48.1032 -39.2330 -39.2303
   -39.1440 -39.1412 -39.0313 -39.0305 -13.5113 -13.4996 -13.4859 -13.4731
    -6.2004  -6.1956  -5.5868  -5.5466  -4.4563  -4.4139  -4.3930  -4.3526
    -4.2041  -4.1312  -3.3007  -3.2706  -0.1165  -0.0243   0.0080   0.0594
     1.8072   1.8603   2.0285   2.1363   3.9107   4.0599   5.3609

          k = 0.2500 0.5052 0.0000 ( 38019 PWs)   bands (ev):

   -74.8742 -74.8725 -48.1546 -48.1531 -48.1524 -48.1513 -48.1510 -48.1491
   -48.1488 -48.1471 -48.1280 -48.1273 -48.1252 -48.1249 -48.1246 -48.1242
   -48.1211 -48.1205 -48.1102 -48.1072 -48.1070 -48.1030 -39.2353 -39.2325
   -39.1638 -39.1610 -39.0277 -39.0269 -13.4086 -13.4002 -13.2711 -13.2622
    -6.3741  -6.3649  -5.6054  -5.5855  -4.8162  -4.8067  -4.4069  -4.3583
    -4.0761  -4.0213  -3.5594  -3.5362  -0.1873  -0.1270   0.4234   0.4618
     1.5576   1.5617   2.3194   2.4969   3.7992   3.8991   5.0720

          k = 0.2500 0.5774 0.0000 ( 38023 PWs)   bands (ev):

   -74.8739 -74.8723 -48.1544 -48.1530 -48.1524 -48.1513 -48.1509 -48.1491
   -48.1486 -48.1471 -48.1280 -48.1274 -48.1252 -48.1249 -48.1246 -48.1243
   -48.1211 -48.1205 -48.1102 -48.1072 -48.1070 -48.1029 -39.2348 -39.2320
   -39.1720 -39.1692 -39.0264 -39.0256 -13.3721 -13.3658 -13.1899 -13.1837
    -6.4338  -6.4213  -5.6078  -5.5970  -4.9839  -4.9746  -4.2617  -4.2171
    -4.2080  -4.1703  -3.5720  -3.5587  -0.2446  -0.1896   0.7810   0.8163
     1.2187   1.2298   2.6358   2.7262   3.5665   3.6580   4.9730

          k = 0.3125 0.5413 0.0000 ( 38095 PWs)   bands (ev):

   -74.8738 -74.8721 -48.1541 -48.1529 -48.1524 -48.1516 -48.1505 -48.1494
   -48.1483 -48.1474 -48.1279 -48.1275 -48.1252 -48.1248 -48.1247 -48.1244
   -48.1211 -48.1206 -48.1102 -48.1072 -48.1070 -48.1029 -39.2199 -39.2172
   -39.1911 -39.1884 -39.0257 -39.0249 -13.2844 -13.2790 -13.2222 -13.2170
    -6.1224  -6.1120  -5.6350  -5.6282  -5.4226  -5.4119  -4.2543  -4.2048
    -3.9477  -3.9247  -3.9091  -3.8666   0.1857   0.2541   0.3852   0.4310
     1.0727   1.0797   2.7971   2.9835   3.4608   3.5835   4.8206

     the Fermi energy is    -0.0180 ev

!    total energy              =   -3113.96928643 Ry
     total all-electron energy =    -83998.693851 Ry
     estimated scf accuracy    <       0.00000006 Ry
     smearing contrib. (-TS)   =       0.00047556 Ry
     internal energy E=F+TS    =   -3113.96976199 Ry

     The total energy is F=E-TS. E is the sum of the following terms:
     one-electron contribution =  -27308.82774192 Ry
     hartree contribution      =   13641.55094958 Ry
     xc contribution           =    -193.58395188 Ry
     ewald contribution        =   12508.20492842 Ry
     one-center paw contrib.   =   -1761.31394619 Ry

     convergence has been achieved in  34 iterations

     Writing all to output data dir ./tmp/cleave_005/wse2_cleave_005.save/ :
     XML data file, charge density, pseudopotentials, collected wavefunctions

     init_run     :     28.10s CPU     28.46s WALL (       1 calls)
     electrons    :   1560.83s CPU   1589.82s WALL (       1 calls)

     Called by init_run:
     wfcinit      :     15.38s CPU     15.44s WALL (       1 calls)
     potinit      :     11.71s CPU     11.81s WALL (       1 calls)
     hinit0       :      0.10s CPU      0.11s WALL (       1 calls)

     Called by electrons:
     c_bands      :   1312.21s CPU   1327.50s WALL (      35 calls)
     sum_band     :    177.86s CPU    184.85s WALL (      35 calls)
     v_of_rho     :     39.28s CPU     40.98s WALL (      35 calls)
     newd         :     24.27s CPU     29.23s WALL (      35 calls)
     PAW_pot      :      3.40s CPU      3.45s WALL (      35 calls)
     mix_rho      :     15.63s CPU     15.82s WALL (      35 calls)
     vdW_kernel   :     10.82s CPU     10.83s WALL (       1 calls)

     Called by c_bands:
     init_us_2    :      6.59s CPU      6.62s WALL (    2130 calls)
     cegterg      :   1280.95s CPU   1295.44s WALL (    1050 calls)

     Called by *egterg:
     cdiaghg      :     14.60s CPU     14.63s WALL (    4269 calls)
     h_psi        :    547.33s CPU    551.76s WALL (    4329 calls)
     s_psi        :    132.99s CPU    133.11s WALL (    4329 calls)
     g_psi        :      1.42s CPU      1.43s WALL (    3249 calls)

     Called by h_psi:
     h_psi:calbec :    197.61s CPU    199.96s WALL (    4329 calls)
     vloc_psi     :    195.75s CPU    197.68s WALL (    4329 calls)
                                        0.00s GPU  (    4329 calls)
     add_vuspsi   :    152.01s CPU    152.13s WALL (    4329 calls)

     General routines
     calbec       :    287.57s CPU    290.98s WALL (    5379 calls)
     fft          :     18.73s CPU     19.07s WALL (    2204 calls)
     ffts         :      6.11s CPU      6.20s WALL (    4129 calls)
     fftw         :    216.90s CPU    219.15s WALL (  310724 calls)
     interpolate  :      0.34s CPU      0.34s WALL (      35 calls)

     Parallel routines

     PWSCF        :  26m29.51s CPU  26m59.05s WALL


   This run was terminated on:  13:56:19  18Jun2026            

=------------------------------------------------------------------------------=
   JOB DONE.
=------------------------------------------------------------------------------=
Note: The following floating-point exceptions are signalling: IEEE_UNDERFLOW_FLAG IEEE_DENORMAL
Note: The following floating-point exceptions are signalling: IEEE_UNDERFLOW_FLAG IEEE_DENORMAL
Note: The following floating-point exceptions are signalling: IEEE_UNDERFLOW_FLAG IEEE_DENORMAL
Note: The following floating-point exceptions are signalling: IEEE_UNDERFLOW_FLAG IEEE_DENORMAL
Note: The following floating-point exceptions are signalling: IEEE_UNDERFLOW_FLAG IEEE_DENORMAL
Note: The following floating-point exceptions are signalling: IEEE_UNDERFLOW_FLAG IEEE_DENORMAL
Note: The following floating-point exceptions are signalling: IEEE_UNDERFLOW_FLAG IEEE_DENORMAL
Note: The following floating-point exceptions are signalling: IEEE_UNDERFLOW_FLAG IEEE_DENORMAL
Note: The following floating-point exceptions are signalling: IEEE_UNDERFLOW_FLAG IEEE_DENORMAL
Note: The following floating-point exceptions are signalling: IEEE_UNDERFLOW_FLAG IEEE_DENORMAL
Note: The following floating-point exceptions are signalling: IEEE_UNDERFLOW_FLAG IEEE_DENORMAL
Note: The following floating-point exceptions are signalling: IEEE_UNDERFLOW_FLAG IEEE_DENORMAL
