
     Program PWSCF v.7.5 starts on 18Jun2026 at 16:17:44 

     This program is part of the open-source Quantum ESPRESSO suite
     for quantum simulation of materials; please cite
         "P. Giannozzi et al., J. Phys.:Condens. Matter 21 395502 (2009);
         "P. Giannozzi et al., J. Phys.:Condens. Matter 29 465901 (2017);
         "P. Giannozzi et al., J. Chem. Phys. 152 154105 (2020);
          URL http://www.quantum-espresso.org", 
     in publications or presentations arising from this work. More details at
     http://www.quantum-espresso.org/quote

     Parallel version (MPI), running on    12 processors

     MPI processes distributed on     1 nodes
     27458 MiB available memory on the printing compute node when the environment starts

     Waiting for input...
     Reading input from standard input

     Current dimensions of program PWSCF are:
     Max number of different atomic species (ntypx) = 10
     Max number of k-points (npk) =  40000
     Max angular momentum in pseudopotentials (lmaxx) =  4
     file W.pbe-spn-kjpaw_psl.1.0.0.UPF: wavefunction(s)  6S 5P 5D renormalized
     file Se.pbe-dn-kjpaw_psl.1.0.0.UPF: wavefunction(s)  4S 4P 3D renormalized

     IMPORTANT: XC functional enforced from input :
     Exchange-correlation= VDW-DF2-B86R
                           (   1   4  26   0   2   0   0)
     Any further DFT definition will be discarded
     Please, verify this is what you really want


     R & G space division:  proc/nbgrp/npool/nimage =      12
     Subspace diagonalization in iterative solution of the eigenvalue problem:
     a serial algorithm will be used


     Parallelization info
     --------------------
     sticks:   dense  smooth     PW     G-vecs:    dense   smooth      PW
     Min         139      70     20                71489    25322    3895
     Max         140      71     22                71558    25395    3945
     Sum        1675     847    253               858263   304337   46813

     Using Slab Decomposition



     bravais-lattice index     =            4
     lattice parameter (alat)  =       6.1983  a.u.
     unit-cell volume          =    3143.7277 (a.u.)^3
     number of atoms/cell      =            6
     number of atomic types    =            2
     number of electrons       =        92.00
     number of Kohn-Sham states=           55
     kinetic-energy cutoff     =      80.0000  Ry
     charge density cutoff     =     640.0000  Ry
     scf convergence threshold =      1.0E-07
     mixing beta               =       0.1000
     number of iterations used =           12  local-TF  mixing
     Exchange-correlation= VDW-DF2-B86R
                           (   1   4  26   0   2   0   0)

     celldm(1)=   6.198302  celldm(2)=   0.000000  celldm(3)=  15.243902
     celldm(4)=   0.000000  celldm(5)=   0.000000  celldm(6)=   0.000000

     crystal axes: (cart. coord. in units of alat)
               a(1) = (   1.000000   0.000000   0.000000 )  
               a(2) = (  -0.500000   0.866025   0.000000 )  
               a(3) = (   0.000000   0.000000  15.243902 )  

     reciprocal axes: (cart. coord. in units 2 pi/alat)
               b(1) = (  1.000000  0.577350 -0.000000 )  
               b(2) = (  0.000000  1.154701  0.000000 )  
               b(3) = (  0.000000 -0.000000  0.065600 )  


     PseudoPot. # 1 for W  read from file:
     ./pseudo/W.pbe-spn-kjpaw_psl.1.0.0.UPF
     MD5 check sum: 03c3df5b60893f488392c7401945500a
     Pseudo is Projector augmented-wave + core cor, Zval = 14.0
     Generated using &quot;atomic&quot; code by A. Dal Corso  v.6.2.2
     Shape of augmentation charge: PSQ
     Using radial grid of 1273 points,  6 beta functions with: 
                l(1) =   0
                l(2) =   0
                l(3) =   1
                l(4) =   1
                l(5) =   2
                l(6) =   2
     Q(r) pseudized with 0 coefficients 


     PseudoPot. # 2 for Se read from file:
     ./pseudo/Se.pbe-dn-kjpaw_psl.1.0.0.UPF
     MD5 check sum: ac240dd2bae32a30e0bf3a38df9c8785
     Pseudo is Projector augmented-wave + core cor, Zval = 16.0
     Generated using &quot;atomic&quot; code by A. Dal Corso  v.6.3
     Shape of augmentation charge: PSQ
     Using radial grid of 1211 points,  6 beta functions with: 
                l(1) =   0
                l(2) =   0
                l(3) =   1
                l(4) =   1
                l(5) =   2
                l(6) =   2
     Q(r) pseudized with 0 coefficients 


     atomic species   valence    mass     pseudopotential
     W                14.00   183.84000     W ( 1.00)
     Se               16.00    78.96000     Se( 1.00)

      6 Sym. Ops. (no inversion) found



   Cartesian axes

     site n.     atom                  positions (alat units)
         1        Se     tau(   1) = (  -0.0000005   0.5773506   6.1149390  )
         2        W      tau(   2) = (   0.0000000   0.0000000   6.6383232  )
         3        Se     tau(   3) = (   0.5000005   0.2886748   7.1618445  )
         4        Se     tau(   4) = (  -0.0000005   0.5773506   9.0572409  )
         5        W      tau(   5) = (   0.5000005   0.2886748   9.5804878  )
         6        Se     tau(   6) = (   0.0000000   0.0000000  10.1045732  )

     number of k points=    30  Methfessel-Paxton smearing, width (Ry)=  0.0200
                       cart. coord. in units 2pi/alat
        k(    1) = (   0.0000000   0.0000000   0.0000000), wk =   0.0078125
        k(    2) = (   0.0000000   0.0721688   0.0000000), wk =   0.0468750
        k(    3) = (   0.0000000   0.1443376   0.0000000), wk =   0.0468750
        k(    4) = (   0.0000000   0.2165064   0.0000000), wk =   0.0468750
        k(    5) = (   0.0000000   0.2886751   0.0000000), wk =   0.0468750
        k(    6) = (   0.0000000   0.3608439   0.0000000), wk =   0.0468750
        k(    7) = (   0.0000000   0.4330127   0.0000000), wk =   0.0468750
        k(    8) = (   0.0000000   0.5051815   0.0000000), wk =   0.0468750
        k(    9) = (   0.0000000  -0.5773503   0.0000000), wk =   0.0234375
        k(   10) = (   0.0625000   0.1082532   0.0000000), wk =   0.0468750
        k(   11) = (   0.0625000   0.1804220   0.0000000), wk =   0.0937500
        k(   12) = (   0.0625000   0.2525907   0.0000000), wk =   0.0937500
        k(   13) = (   0.0625000   0.3247595   0.0000000), wk =   0.0937500
        k(   14) = (   0.0625000   0.3969283   0.0000000), wk =   0.0937500
        k(   15) = (   0.0625000   0.4690971   0.0000000), wk =   0.0937500
        k(   16) = (   0.0625000   0.5412659   0.0000000), wk =   0.0937500
        k(   17) = (   0.1250000   0.2165064   0.0000000), wk =   0.0468750
        k(   18) = (   0.1250000   0.2886751   0.0000000), wk =   0.0937500
        k(   19) = (   0.1250000   0.3608439   0.0000000), wk =   0.0937500
        k(   20) = (   0.1250000   0.4330127   0.0000000), wk =   0.0937500
        k(   21) = (   0.1250000   0.5051815   0.0000000), wk =   0.0937500
        k(   22) = (   0.1250000   0.5773503   0.0000000), wk =   0.0468750
        k(   23) = (   0.1875000   0.3247595   0.0000000), wk =   0.0468750
        k(   24) = (   0.1875000   0.3969283   0.0000000), wk =   0.0937500
        k(   25) = (   0.1875000   0.4690971   0.0000000), wk =   0.0937500
        k(   26) = (   0.1875000   0.5412659   0.0000000), wk =   0.0937500
        k(   27) = (   0.2500000   0.4330127   0.0000000), wk =   0.0468750
        k(   28) = (   0.2500000   0.5051815   0.0000000), wk =   0.0937500
        k(   29) = (   0.2500000   0.5773503   0.0000000), wk =   0.0468750
        k(   30) = (   0.3125000   0.5412659   0.0000000), wk =   0.0468750

     Dense  grid:   858263 G-vectors     FFT dimensions: (  50,  50, 768)

     Smooth grid:   304337 G-vectors     FFT dimensions: (  36,  36, 540)

     Estimated max dynamical RAM per process >     350.14 MB

     Estimated total dynamical RAM >       4.10 GB

     Initial potential from superposition of free atoms

     starting charge      91.9986, renormalised to      92.0000

     negative rho (up, down):  1.644E-04 0.000E+00


     %%%%%%%%%%%%%%%%%%%%%%%%%%%%%%%%%%%%%%%%%%%%%%%%%%%%%%%%%%%%%%%%%%%%%%%%
     %                                                                      %
     % You are using vdW-DF, which was implemented by the Thonhauser group. %
     % Please cite the following two papers that made this development      %
     % possible and the two reviews that describe the various versions:     %
     %                                                                      %
     %   T. Thonhauser et al., PRL 115, 136402 (2015).                      %
     %   T. Thonhauser et al., PRB 76, 125112 (2007).                       %
     %   K. Berland et al., Rep. Prog. Phys. 78, 066501 (2015).             %
     %   D.C. Langreth et al., J. Phys.: Condens. Matter 21, 084203 (2009). %
     %                                                                      %
     % If you are calculating stress with vdW-DF, please also cite:         %
     %                                                                      %
     %   R. Sabatini et al., J. Phys.: Condens. Matter 24, 424209 (2012).   %
     %                                                                      %
     %%%%%%%%%%%%%%%%%%%%%%%%%%%%%%%%%%%%%%%%%%%%%%%%%%%%%%%%%%%%%%%%%%%%%%%%

     %%%%%%%%%%%%%%%%%%%%%%%%%%%%%%%%%%%%%%%%%%%%%%%%%%%%%%%%%%%%%%%%%%%%%%%%
     %                                                                      %
     %  vdW-DF NEWS:                                                        %
     %                                                                      %
     %  * vdW-DF3 is now available. DOI: 10.1021/acs.jctc.0c00471           %
     %    use with input_dft = 'vdW-DF3-opt1' or 'vdW-DF3-opt2'             %
     %                                                                      %
     %  * Unscreened and range-separated hybrid vdW-DF-cx functionals       %
     %    DOI: 10.1063/1.4986522 and 10.1088/1361-648X/ac2ad2               %
     %    use with input_dft = 'vdW-DF-cx0'    and 'vdW-DF-ahcx'            %
     %  * Unscreened and range-separated hybrid vdW-DF2-b86r functionals    %
     %    DOI: 10.1063/1.4986522 and DOI: 10.1103/PhysRevX.12.041003        %
     %    use with input_dft = 'vdW-DF2-br0' and 'vdW-DF2-ahbr'             %
     %                                                                      %
     %%%%%%%%%%%%%%%%%%%%%%%%%%%%%%%%%%%%%%%%%%%%%%%%%%%%%%%%%%%%%%%%%%%%%%%%


     Starting wfcs are   62 randomized atomic wfcs
     Checking if some PAW data can be deallocated... 

     total cpu time spent up to now is       49.6 secs

     per-process dynamical memory:   142.9 Mb

     Self-consistent Calculation

     iteration #  1     ecut=    80.00 Ry     beta= 0.10
     Davidson diagonalization with overlap
     ethr =  1.00E-02,  avg # of iterations =  4.2

     Threshold (ethr) on eigenvalues was too large:
     Diagonalizing with lowered threshold

     Davidson diagonalization with overlap
     ethr =  1.09E-04,  avg # of iterations =  5.7

     negative rho (up, down):  8.443E-05 0.000E+00

     total cpu time spent up to now is      245.2 secs

     total energy              =   -3113.99371381 Ry
     estimated scf accuracy    <       0.12876748 Ry

     iteration #  2     ecut=    80.00 Ry     beta= 0.10
     Davidson diagonalization with overlap
     ethr =  1.40E-04,  avg # of iterations =  1.0

     negative rho (up, down):  8.085E-05 0.000E+00

     total cpu time spent up to now is      314.0 secs

     total energy              =   -3113.94999502 Ry
     estimated scf accuracy    <       0.11717680 Ry

     iteration #  3     ecut=    80.00 Ry     beta= 0.10
     Davidson diagonalization with overlap
     ethr =  1.27E-04,  avg # of iterations =  2.2

     negative rho (up, down):  3.042E-05 0.000E+00

     total cpu time spent up to now is      400.8 secs

     total energy              =   -3113.96425968 Ry
     estimated scf accuracy    <       0.02505954 Ry

     iteration #  4     ecut=    80.00 Ry     beta= 0.10
     Davidson diagonalization with overlap
     ethr =  2.72E-05,  avg # of iterations =  1.9

     negative rho (up, down):  1.954E-06 0.000E+00

     total cpu time spent up to now is      469.7 secs

     total energy              =   -3113.95954603 Ry
     estimated scf accuracy    <       0.02204123 Ry

     iteration #  5     ecut=    80.00 Ry     beta= 0.10
     Davidson diagonalization with overlap
     ethr =  2.40E-05,  avg # of iterations =  4.3

     negative rho (up, down):  1.456E-06 0.000E+00

     total cpu time spent up to now is      554.6 secs

     total energy              =   -3113.96133521 Ry
     estimated scf accuracy    <       0.00298337 Ry

     iteration #  6     ecut=    80.00 Ry     beta= 0.10
     Davidson diagonalization with overlap
     c_bands:  1 eigenvalues not converged
     c_bands:  1 eigenvalues not converged
     c_bands:  1 eigenvalues not converged
     c_bands:  1 eigenvalues not converged
     ethr =  3.24E-06,  avg # of iterations =  9.0

     negative rho (up, down):  2.315E-07 0.000E+00

     total cpu time spent up to now is      635.2 secs

     total energy              =   -3113.96033239 Ry
     estimated scf accuracy    <       0.00272077 Ry

     iteration #  7     ecut=    80.00 Ry     beta= 0.10
     Davidson diagonalization with overlap
     ethr =  2.96E-06,  avg # of iterations =  5.0

     negative rho (up, down):  2.107E-07 0.000E+00

     total cpu time spent up to now is      720.9 secs

     total energy              =   -3113.96001784 Ry
     estimated scf accuracy    <       0.00368465 Ry

     iteration #  8     ecut=    80.00 Ry     beta= 0.10
     Davidson diagonalization with overlap
     ethr =  2.96E-06,  avg # of iterations =  4.4

     negative rho (up, down):  1.285E-08 0.000E+00

     total cpu time spent up to now is      802.7 secs

     total energy              =   -3113.96021750 Ry
     estimated scf accuracy    <       0.00072082 Ry

     iteration #  9     ecut=    80.00 Ry     beta= 0.10
     Davidson diagonalization with overlap
     ethr =  7.83E-07,  avg # of iterations =  4.9

     negative rho (up, down):  2.424E-08 0.000E+00

     total cpu time spent up to now is      904.5 secs

     total energy              =   -3113.96017345 Ry
     estimated scf accuracy    <       0.00066193 Ry

     iteration # 10     ecut=    80.00 Ry     beta= 0.10
     Davidson diagonalization with overlap
     ethr =  7.19E-07,  avg # of iterations =  3.9

     total cpu time spent up to now is     1005.3 secs

     total energy              =   -3113.96018835 Ry
     estimated scf accuracy    <       0.00049401 Ry

     iteration # 11     ecut=    80.00 Ry     beta= 0.10
     Davidson diagonalization with overlap
     ethr =  5.37E-07,  avg # of iterations =  1.9

     negative rho (up, down):  5.777E-06 0.000E+00

     total cpu time spent up to now is     1092.2 secs

     total energy              =   -3113.96017801 Ry
     estimated scf accuracy    <       0.00042621 Ry

     iteration # 12     ecut=    80.00 Ry     beta= 0.10
     Davidson diagonalization with overlap
     ethr =  4.63E-07,  avg # of iterations =  4.2

     negative rho (up, down):  3.052E-03 0.000E+00

     total cpu time spent up to now is     1190.7 secs

     total energy              =   -3113.96010480 Ry
     estimated scf accuracy    <       0.00041570 Ry

     iteration # 13     ecut=    80.00 Ry     beta= 0.10
     Davidson diagonalization with overlap
     ethr =  4.52E-07,  avg # of iterations =  3.4

     negative rho (up, down):  3.739E-03 0.000E+00

     total cpu time spent up to now is     1276.6 secs

     total energy              =   -3113.96011775 Ry
     estimated scf accuracy    <       0.00025642 Ry

     iteration # 14     ecut=    80.00 Ry     beta= 0.10
     Davidson diagonalization with overlap
     ethr =  2.79E-07,  avg # of iterations =  2.0

     negative rho (up, down):  4.359E-03 0.000E+00

     total cpu time spent up to now is     1369.6 secs

     total energy              =   -3113.96009236 Ry
     estimated scf accuracy    <       0.00025527 Ry

     iteration # 15     ecut=    80.00 Ry     beta= 0.10
     Davidson diagonalization with overlap
     ethr =  2.77E-07,  avg # of iterations =  3.7

     negative rho (up, down):  2.935E-03 0.000E+00

     total cpu time spent up to now is     1477.2 secs

     total energy              =   -3113.96013213 Ry
     estimated scf accuracy    <       0.00018487 Ry

     iteration # 16     ecut=    80.00 Ry     beta= 0.10
     Davidson diagonalization with overlap
     ethr =  2.01E-07,  avg # of iterations =  1.6

     negative rho (up, down):  3.008E-03 0.000E+00

     total cpu time spent up to now is     1569.8 secs

     total energy              =   -3113.96007249 Ry
     estimated scf accuracy    <       0.00027996 Ry

     iteration # 17     ecut=    80.00 Ry     beta= 0.10
     Davidson diagonalization with overlap
     ethr =  2.01E-07,  avg # of iterations =  4.9

     negative rho (up, down):  2.601E-03 0.000E+00

     total cpu time spent up to now is     1674.2 secs

     total energy              =   -3113.96008553 Ry
     estimated scf accuracy    <       0.00009563 Ry

     iteration # 18     ecut=    80.00 Ry     beta= 0.10
     Davidson diagonalization with overlap
     ethr =  1.04E-07,  avg # of iterations =  2.3

     negative rho (up, down):  1.478E-03 0.000E+00

     total cpu time spent up to now is     1774.1 secs

     total energy              =   -3113.96006750 Ry
     estimated scf accuracy    <       0.00008725 Ry

     iteration # 19     ecut=    80.00 Ry     beta= 0.10
     Davidson diagonalization with overlap
     ethr =  9.48E-08,  avg # of iterations =  4.8

     negative rho (up, down):  2.347E-03 0.000E+00

     total cpu time spent up to now is     1885.1 secs

     total energy              =   -3113.96003425 Ry
     estimated scf accuracy    <       0.00007306 Ry

     iteration # 20     ecut=    80.00 Ry     beta= 0.10
     Davidson diagonalization with overlap
     ethr =  7.94E-08,  avg # of iterations =  4.9

     negative rho (up, down):  1.855E-03 0.000E+00

     total cpu time spent up to now is     1994.6 secs

     total energy              =   -3113.96005277 Ry
     estimated scf accuracy    <       0.00002360 Ry

     iteration # 21     ecut=    80.00 Ry     beta= 0.10
     Davidson diagonalization with overlap
     ethr =  2.56E-08,  avg # of iterations =  2.0

     negative rho (up, down):  1.597E-03 0.000E+00

     total cpu time spent up to now is     2091.9 secs

     total energy              =   -3113.96006014 Ry
     estimated scf accuracy    <       0.00001707 Ry

     iteration # 22     ecut=    80.00 Ry     beta= 0.10
     Davidson diagonalization with overlap
     ethr =  1.86E-08,  avg # of iterations =  2.2

     negative rho (up, down):  1.489E-03 0.000E+00

     total cpu time spent up to now is     2201.5 secs

     total energy              =   -3113.96006542 Ry
     estimated scf accuracy    <       0.00001796 Ry

     iteration # 23     ecut=    80.00 Ry     beta= 0.10
     Davidson diagonalization with overlap
     ethr =  1.86E-08,  avg # of iterations =  2.0

     negative rho (up, down):  6.579E-04 0.000E+00

     total cpu time spent up to now is     2307.1 secs

     total energy              =   -3113.96006076 Ry
     estimated scf accuracy    <       0.00000953 Ry

     iteration # 24     ecut=    80.00 Ry     beta= 0.10
     Davidson diagonalization with overlap
     ethr =  1.04E-08,  avg # of iterations =  3.7

     negative rho (up, down):  5.739E-04 0.000E+00

     total cpu time spent up to now is     2399.3 secs

     total energy              =   -3113.96006166 Ry
     estimated scf accuracy    <       0.00000135 Ry

     iteration # 25     ecut=    80.00 Ry     beta= 0.10
     Davidson diagonalization with overlap
     ethr =  1.46E-09,  avg # of iterations =  2.1

     negative rho (up, down):  3.110E-04 0.000E+00

     total cpu time spent up to now is     2483.0 secs

     total energy              =   -3113.96006266 Ry
     estimated scf accuracy    <       0.00000028 Ry

     iteration # 26     ecut=    80.00 Ry     beta= 0.10
     Davidson diagonalization with overlap
     ethr =  3.01E-10,  avg # of iterations =  2.9

     negative rho (up, down):  1.936E-04 0.000E+00

     total cpu time spent up to now is     2578.1 secs

     total energy              =   -3113.96006422 Ry
     estimated scf accuracy    <       0.00000016 Ry

     iteration # 27     ecut=    80.00 Ry     beta= 0.10
     Davidson diagonalization with overlap
     ethr =  1.73E-10,  avg # of iterations =  2.6

     negative rho (up, down):  1.632E-04 0.000E+00

     total cpu time spent up to now is     2687.6 secs

     End of self-consistent calculation

          k = 0.0000 0.0000 0.0000 ( 38015 PWs)   bands (ev):

   -74.8847 -74.8844 -48.1506 -48.1506 -48.1497 -48.1497 -48.1496 -48.1496
   -48.1481 -48.1481 -48.1200 -48.1200 -48.1191 -48.1191 -48.1188 -48.1188
   -48.1174 -48.1174 -48.1059 -48.1050 -48.1047 -48.1033 -39.0776 -39.0772
   -39.0426 -39.0426 -39.0419 -39.0419 -15.5140 -15.5110 -14.4431 -14.4419
    -6.9781  -6.9716  -3.3554  -3.3553  -3.3548  -3.3507  -3.3507  -3.3123
    -1.3499  -1.3033  -0.6914  -0.6914  -0.6893  -0.6893   0.2050   0.2050
     0.2072   0.2072   2.8803   3.4074   3.4074   3.4092   3.4093

          k = 0.0000 0.0722 0.0000 ( 37975 PWs)   bands (ev):

   -74.8843 -74.8840 -48.1506 -48.1504 -48.1497 -48.1496 -48.1495 -48.1494
   -48.1481 -48.1479 -48.1200 -48.1200 -48.1192 -48.1191 -48.1189 -48.1188
   -48.1175 -48.1174 -48.1058 -48.1049 -48.1046 -48.1033 -39.0758 -39.0754
   -39.0516 -39.0509 -39.0447 -39.0440 -15.4529 -15.4499 -14.4151 -14.4138
    -6.8957  -6.8892  -3.8490  -3.8340  -3.3207  -3.3160  -2.9369  -2.9100
    -1.4160  -1.3840  -0.9819  -0.9726  -0.9204  -0.9181   0.1853   0.1999
     0.4064   0.4082   2.9089   3.0802   3.1703   3.3657   3.3675

          k = 0.0000 0.1443 0.0000 ( 37895 PWs)   bands (ev):

   -74.8831 -74.8829 -48.1505 -48.1499 -48.1496 -48.1496 -48.1490 -48.1488
   -48.1481 -48.1474 -48.1202 -48.1201 -48.1194 -48.1192 -48.1191 -48.1189
   -48.1177 -48.1175 -48.1056 -48.1047 -48.1043 -48.1030 -39.0775 -39.0768
   -39.0706 -39.0702 -39.0507 -39.0500 -15.2738 -15.2709 -14.3332 -14.3318
    -6.6559  -6.6494  -4.3515  -4.3409  -3.2376  -3.2330  -2.7130  -2.6887
    -2.0413  -2.0356  -1.3040  -1.3014  -1.2082  -1.1784   0.1768   0.2088
     0.7104   0.7117   2.4252   2.5261   3.2894   3.2911   3.3991

          k = 0.0000 0.2165 0.0000 ( 37851 PWs)   bands (ev):

   -74.8814 -74.8812 -48.1505 -48.1496 -48.1496 -48.1491 -48.1482 -48.1481
   -48.1481 -48.1466 -48.1206 -48.1202 -48.1197 -48.1193 -48.1193 -48.1189
   -48.1179 -48.1176 -48.1052 -48.1043 -48.1040 -48.1026 -39.1158 -39.1151
   -39.0629 -39.0625 -39.0597 -39.0590 -14.9905 -14.9877 -14.2038 -14.2022
    -6.2882  -6.2818  -4.8024  -4.7947  -3.2988  -3.2958  -3.1746  -3.1701
    -2.4577  -2.4361  -1.5966  -1.5937  -1.3403  -1.3226   0.2100   0.2515
     0.9132   0.9141   2.1080   2.2300   3.2630   3.2645   3.7976

          k = 0.0000 0.2887 0.0000 ( 37919 PWs)   bands (ev):

   -74.8794 -74.8791 -48.1505 -48.1496 -48.1496 -48.1482 -48.1481 -48.1473
   -48.1472 -48.1457 -48.1210 -48.1204 -48.1201 -48.1196 -48.1194 -48.1190
   -48.1182 -48.1176 -48.1048 -48.1039 -48.1035 -48.1022 -39.1607 -39.1599
   -39.0704 -39.0697 -39.0538 -39.0534 -14.6296 -14.6269 -14.0356 -14.0339
    -5.8969  -5.8913  -5.1180  -5.1121  -4.3565  -4.3537  -3.2201  -3.2159
    -2.6255  -2.6106  -1.6943  -1.6913  -1.6396  -1.6312   0.3674   0.4100
     1.0180   1.0187   2.2339   2.3829   3.3081   3.3098   4.2718

          k = 0.0000 0.3608 0.0000 ( 37933 PWs)   bands (ev):

   -74.8774 -74.8771 -48.1506 -48.1497 -48.1495 -48.1481 -48.1473 -48.1464
   -48.1464 -48.1449 -48.1214 -48.1205 -48.1205 -48.1199 -48.1196 -48.1191
   -48.1185 -48.1177 -48.1043 -48.1034 -48.1031 -48.1017 -39.2052 -39.2045
   -39.0810 -39.0803 -39.0446 -39.0443 -14.2450 -14.2424 -13.8306 -13.8287
    -5.9069  -5.9037  -5.3333  -5.3300  -4.9169  -4.9113  -3.3691  -3.3651
    -2.9686  -2.9604  -1.9427  -1.9367  -1.6338  -1.6308   0.7108   0.7469
     1.1112   1.1121   2.6707   2.8327   3.3819   3.3839   4.7549

          k = 0.0000 0.4330 0.0000 ( 37998 PWs)   bands (ev):

   -74.8757 -74.8754 -48.1507 -48.1498 -48.1495 -48.1481 -48.1466 -48.1457
   -48.1456 -48.1441 -48.1218 -48.1208 -48.1206 -48.1201 -48.1197 -48.1191
   -48.1187 -48.1178 -48.1040 -48.1031 -48.1027 -48.1014 -39.2427 -39.2419
   -39.0899 -39.0892 -39.0369 -39.0365 -13.9405 -13.9378 -13.5677 -13.5656
    -6.5213  -6.5184  -5.6026  -5.5994  -4.6935  -4.6898  -3.5337  -3.5298
    -3.2605  -3.2544  -2.1290  -2.1247  -1.5383  -1.5355   1.1819   1.2081
     1.2500   1.2513   3.1927   3.3216   3.4437   3.4460   4.5246

          k = 0.0000 0.5052 0.0000 ( 38048 PWs)   bands (ev):

   -74.8746 -74.8743 -48.1508 -48.1498 -48.1495 -48.1480 -48.1461 -48.1452
   -48.1451 -48.1437 -48.1220 -48.1211 -48.1207 -48.1202 -48.1198 -48.1192
   -48.1189 -48.1178 -48.1037 -48.1028 -48.1025 -48.1011 -39.2676 -39.2668
   -39.0959 -39.0952 -39.0317 -39.0313 -13.7790 -13.7762 -13.2993 -13.2973
    -7.0853  -7.0823  -5.6200  -5.6176  -4.7684  -4.7662  -3.6504  -3.6466
    -3.1928  -3.1875  -2.2461  -2.2436  -1.4769  -1.4744   1.3993   1.4010
     1.6594   1.6746   3.4343   3.4715   3.4800   3.4825   4.4387

          k = 0.0000-0.5774 0.0000 ( 38024 PWs)   bands (ev):

   -74.8742 -74.8739 -48.1508 -48.1498 -48.1494 -48.1480 -48.1459 -48.1450
   -48.1450 -48.1435 -48.1221 -48.1211 -48.1207 -48.1203 -48.1198 -48.1192
   -48.1189 -48.1178 -48.1036 -48.1027 -48.1024 -48.1011 -39.2763 -39.2755
   -39.0980 -39.0973 -39.0298 -39.0295 -13.7292 -13.7264 -13.1849 -13.1830
    -7.2981  -7.2951  -5.5845  -5.5828  -4.8906  -4.8883  -3.6918  -3.6879
    -3.0762  -3.0723  -2.2987  -2.2969  -1.4578  -1.4554   1.4659   1.4677
     1.8872   1.8932   3.4618   3.4868   3.4916   3.4941   4.2266

          k = 0.0625 0.1083 0.0000 ( 37895 PWs)   bands (ev):

   -74.8835 -74.8832 -48.1505 -48.1500 -48.1496 -48.1495 -48.1491 -48.1490
   -48.1481 -48.1476 -48.1202 -48.1200 -48.1193 -48.1192 -48.1190 -48.1189
   -48.1176 -48.1175 -48.1057 -48.1047 -48.1044 -48.1031 -39.0724 -39.0720
   -39.0688 -39.0681 -39.0490 -39.0483 -15.3328 -15.3298 -14.3601 -14.3588
    -6.7342  -6.7277  -4.2175  -4.2058  -3.2695  -3.2649  -2.7363  -2.7092
    -1.7818  -1.7763  -1.3134  -1.3100  -1.1185  -1.0883   0.2483   0.2750
     0.5588   0.5602   2.6363   2.7410   3.1997   3.2308   3.3461

          k = 0.0625 0.1804 0.0000 ( 37885 PWs)   bands (ev):

   -74.8821 -74.8818 -48.1505 -48.1496 -48.1496 -48.1494 -48.1485 -48.1484
   -48.1481 -48.1469 -48.1205 -48.1201 -48.1196 -48.1193 -48.1192 -48.1189
   -48.1178 -48.1175 -48.1053 -48.1044 -48.1041 -48.1028 -39.1001 -39.0994
   -39.0660 -39.0656 -39.0571 -39.0564 -15.1011 -15.0983 -14.2546 -14.2531
    -6.4263  -6.4198  -4.6477  -4.6391  -3.2609  -3.2565  -2.8086  -2.7977
    -2.4726  -2.4618  -1.6577  -1.6515  -1.1502  -1.1241   0.3063   0.3383
     0.6615   0.6695   2.3559   2.4678   3.0720   3.0834   3.6631

          k = 0.0625 0.2526 0.0000 ( 37916 PWs)   bands (ev):

   -74.8802 -74.8800 -48.1504 -48.1496 -48.1495 -48.1486 -48.1480 -48.1477
   -48.1476 -48.1462 -48.1208 -48.1203 -48.1199 -48.1195 -48.1194 -48.1190
   -48.1181 -48.1176 -48.1049 -48.1040 -48.1037 -48.1024 -39.1408 -39.1401
   -39.0682 -39.0675 -39.0573 -39.0569 -14.7771 -14.7744 -14.1068 -14.1051
    -6.0204  -6.0142  -5.0200  -5.0135  -3.9015  -3.8986  -3.1996  -3.1955
    -2.6038  -2.5916  -1.9177  -1.9124  -1.2139  -1.1995   0.2636   0.2947
     0.8631   0.8820   2.2889   2.4047   3.0722   3.1015   4.0947

          k = 0.0625 0.3248 0.0000 ( 37964 PWs)   bands (ev):

   -74.8782 -74.8779 -48.1505 -48.1496 -48.1495 -48.1480 -48.1478 -48.1469
   -48.1468 -48.1453 -48.1212 -48.1204 -48.1203 -48.1197 -48.1195 -48.1191
   -48.1184 -48.1177 -48.1045 -48.1036 -48.1033 -48.1019 -39.1845 -39.1837
   -39.0798 -39.0791 -39.0483 -39.0479 -14.3976 -14.3949 -13.9245 -13.9227
    -5.7480  -5.7436  -5.1890  -5.1843  -4.8251  -4.8215  -3.4324  -3.4287
    -2.7153  -2.7071  -2.2456  -2.2432  -1.2676  -1.2599   0.3789   0.4073
     1.1202   1.1360   2.4561   2.5639   3.1945   3.2545   4.5938

          k = 0.0625 0.3969 0.0000 ( 37981 PWs)   bands (ev):

   -74.8763 -74.8761 -48.1505 -48.1496 -48.1494 -48.1480 -48.1470 -48.1461
   -48.1460 -48.1445 -48.1216 -48.1207 -48.1206 -48.1200 -48.1197 -48.1192
   -48.1186 -48.1178 -48.1041 -48.1032 -48.1029 -48.1015 -39.2245 -39.2237
   -39.0905 -39.0898 -39.0398 -39.0395 -14.0400 -14.0374 -13.6983 -13.6963
    -6.1343  -6.1314  -5.5115  -5.5080  -4.7691  -4.7640  -3.6812  -3.6778
    -2.9802  -2.9757  -2.4744  -2.4718  -1.2601  -1.2557   0.6763   0.6963
     1.3920   1.4036   2.7640   2.8304   3.3977   3.4926   4.8750

          k = 0.0625 0.4691 0.0000 ( 38057 PWs)   bands (ev):

   -74.8749 -74.8747 -48.1506 -48.1497 -48.1494 -48.1479 -48.1464 -48.1455
   -48.1454 -48.1439 -48.1219 -48.1209 -48.1207 -48.1201 -48.1198 -48.1192
   -48.1188 -48.1179 -48.1038 -48.1029 -48.1026 -48.1012 -39.2549 -39.2542
   -39.0987 -39.0980 -39.0334 -39.0330 -13.8123 -13.8096 -13.4184 -13.4164
    -6.7868  -6.7839  -5.6151  -5.6123  -4.6536  -4.6510  -3.7953  -3.7918
    -3.1478  -3.1436  -2.5708  -2.5688  -1.2642  -1.2617   1.0575   1.0681
     1.6655   1.6745   3.0117   3.0359   3.5886   3.6433   4.5856

          k = 0.0625 0.5413 0.0000 ( 38034 PWs)   bands (ev):

   -74.8742 -74.8739 -48.1506 -48.1497 -48.1493 -48.1479 -48.1460 -48.1452
   -48.1451 -48.1436 -48.1220 -48.1211 -48.1208 -48.1202 -48.1198 -48.1193
   -48.1189 -48.1179 -48.1036 -48.1027 -48.1024 -48.1011 -39.2714 -39.2706
   -39.1031 -39.1024 -39.0299 -39.0295 -13.7128 -13.7100 -13.2119 -13.2099
    -7.1860  -7.1830  -5.5892  -5.5873  -4.8114  -4.8092  -3.8049  -3.8014
    -3.0703  -3.0667  -2.6209  -2.6195  -1.2908  -1.2890   1.3670   1.3702
     1.8392   1.8453   3.1760   3.1834   3.5196   3.5454   4.4833

          k = 0.1250 0.2165 0.0000 ( 37933 PWs)   bands (ev):

   -74.8805 -74.8802 -48.1504 -48.1495 -48.1495 -48.1488 -48.1480 -48.1479
   -48.1478 -48.1464 -48.1208 -48.1203 -48.1199 -48.1194 -48.1194 -48.1191
   -48.1180 -48.1177 -48.1050 -48.1041 -48.1038 -48.1024 -39.1325 -39.1318
   -39.0689 -39.0682 -39.0584 -39.0580 -14.8277 -14.8249 -14.1312 -14.1295
    -6.0651  -6.0587  -4.9721  -4.9653  -3.7356  -3.7323  -2.9809  -2.9712
    -2.8982  -2.8947  -1.9164  -1.9059  -1.0473  -1.0251   0.2734   0.2849
     0.6845   0.7235   2.6006   2.6933   2.6938   2.7483   4.0404

          k = 0.1250 0.2887 0.0000 ( 37936 PWs)   bands (ev):

   -74.8786 -74.8784 -48.1503 -48.1494 -48.1493 -48.1481 -48.1479 -48.1472
   -48.1471 -48.1456 -48.1211 -48.1204 -48.1202 -48.1196 -48.1195 -48.1192
   -48.1182 -48.1178 -48.1046 -48.1037 -48.1034 -48.1020 -39.1698 -39.1690
   -39.0826 -39.0819 -39.0502 -39.0498 -14.4786 -14.4759 -13.9730 -13.9712
    -5.6495  -5.6439  -5.2290  -5.2236  -4.5437  -4.5407  -3.4392  -3.4350
    -2.9747  -2.9715  -2.1988  -2.1927  -0.9315  -0.9160   0.0882   0.1073
     1.0702   1.1030   2.3852   2.4071   2.9665   3.1143   4.5029

          k = 0.1250 0.3608 0.0000 ( 38000 PWs)   bands (ev):

   -74.8768 -74.8765 -48.1503 -48.1494 -48.1492 -48.1477 -48.1474 -48.1465
   -48.1464 -48.1449 -48.1215 -48.1205 -48.1205 -48.1198 -48.1196 -48.1193
   -48.1185 -48.1179 -48.1042 -48.1033 -48.1030 -48.1016 -39.2065 -39.2058
   -39.0968 -39.0961 -39.0418 -39.0414 -14.1036 -14.1010 -13.7854 -13.7833
    -5.7198  -5.7168  -5.3694  -5.3661  -4.9020  -4.8961  -3.8263  -3.8231
    -3.0783  -3.0756  -2.6326  -2.6298  -0.8503  -0.8407   0.1988   0.2180
     1.4636   1.4832   2.3044   2.3284   3.3345   3.4845   5.0066

          k = 0.1250 0.4330 0.0000 ( 38048 PWs)   bands (ev):

   -74.8752 -74.8750 -48.1503 -48.1493 -48.1491 -48.1476 -48.1468 -48.1459
   -48.1458 -48.1444 -48.1218 -48.1208 -48.1207 -48.1200 -48.1198 -48.1194
   -48.1187 -48.1180 -48.1039 -48.1030 -48.1026 -48.1013 -39.2374 -39.2366
   -39.1088 -39.1081 -39.0347 -39.0343 -13.8107 -13.8082 -13.5412 -13.5390
    -6.3526  -6.3497  -5.5617  -5.5584  -4.5573  -4.5533  -4.0765  -4.0731
    -3.2078  -3.2056  -3.0025  -3.0001  -0.8686  -0.8634   0.5541   0.5686
     1.7559   1.7639   2.4101   2.4315   3.6595   3.7629   5.0426

          k = 0.1250 0.5052 0.0000 ( 38027 PWs)   bands (ev):

   -74.8742 -74.8739 -48.1503 -48.1493 -48.1490 -48.1475 -48.1464 -48.1455
   -48.1454 -48.1440 -48.1219 -48.1210 -48.1209 -48.1201 -48.1199 -48.1194
   -48.1188 -48.1180 -48.1036 -48.1027 -48.1024 -48.1011 -39.2579 -39.2571
   -39.1169 -39.1162 -39.0299 -39.0295 -13.6648 -13.6621 -13.2848 -13.2827
    -6.8732  -6.8702  -5.5847  -5.5823  -4.6181  -4.6158  -4.0423  -4.0391
    -3.2968  -3.2949  -3.1064  -3.1037  -0.9555  -0.9527   1.0119   1.0204
     1.8399   1.8430   2.6110   2.6254   3.6953   3.7268   4.9124

          k = 0.1250 0.5774 0.0000 ( 37968 PWs)   bands (ev):

   -74.8738 -74.8735 -48.1502 -48.1493 -48.1489 -48.1475 -48.1462 -48.1453
   -48.1453 -48.1438 -48.1220 -48.1210 -48.1209 -48.1201 -48.1200 -48.1194
   -48.1189 -48.1180 -48.1036 -48.1027 -48.1023 -48.1010 -39.2650 -39.2643
   -39.1198 -39.1191 -39.0282 -39.0279 -13.6200 -13.6172 -13.1773 -13.1753
    -7.0663  -7.0633  -5.5684  -5.5664  -4.7238  -4.7215  -4.0207  -4.0177
    -3.3166  -3.3148  -3.0746  -3.0722  -1.0069  -1.0047   1.3090   1.3110
     1.7488   1.7518   2.7539   2.7567   3.5666   3.5949   4.9322

          k = 0.1875 0.3248 0.0000 ( 37987 PWs)   bands (ev):

   -74.8769 -74.8767 -48.1501 -48.1492 -48.1491 -48.1476 -48.1476 -48.1467
   -48.1466 -48.1451 -48.1215 -48.1205 -48.1205 -48.1198 -48.1196 -48.1194
   -48.1184 -48.1180 -48.1043 -48.1033 -48.1030 -48.1017 -39.1984 -39.1977
   -39.1008 -39.1001 -39.0425 -39.0421 -14.1256 -14.1230 -13.8156 -13.8136
    -5.4167  -5.4127  -5.3945  -5.3918  -4.9790  -4.9733  -3.8283  -3.8248
    -3.3848  -3.3817  -2.5112  -2.5085  -0.5996  -0.5860  -0.0687  -0.0516
     1.4668   1.4921   2.1191   2.1289   3.3175   3.4824   4.9819

          k = 0.1875 0.3969 0.0000 ( 38014 PWs)   bands (ev):

   -74.8754 -74.8751 -48.1499 -48.1490 -48.1488 -48.1473 -48.1471 -48.1463
   -48.1462 -48.1447 -48.1217 -48.1207 -48.1207 -48.1199 -48.1198 -48.1195
   -48.1186 -48.1181 -48.1039 -48.1030 -48.1027 -48.1013 -39.2231 -39.2223
   -39.1192 -39.1185 -39.0354 -39.0350 -13.7828 -13.7803 -13.6358 -13.6335
    -5.9350  -5.9322  -5.5149  -5.5114  -4.6049  -4.5994  -4.1809  -4.1781
    -3.7290  -3.7263  -2.9139  -2.9127  -0.4321  -0.4235   0.0776   0.0913
     1.7884   1.8012   2.0313   2.0467   3.6911   3.8190   5.4204

          k = 0.1875 0.4691 0.0000 ( 38010 PWs)   bands (ev):

   -74.8742 -74.8739 -48.1498 -48.1488 -48.1485 -48.1471 -48.1468 -48.1459
   -48.1459 -48.1444 -48.1218 -48.1209 -48.1209 -48.1201 -48.1199 -48.1196
   -48.1188 -48.1182 -48.1037 -48.1028 -48.1024 -48.1011 -39.2410 -39.2403
   -39.1341 -39.1334 -39.0299 -39.0296 -13.5891 -13.5866 -13.3845 -13.3823
    -6.4498  -6.4470  -5.5654  -5.5624  -4.4332  -4.4306  -4.2352  -4.2316
    -3.9805  -3.9781  -3.2117  -3.2103  -0.5251  -0.5206   0.5209   0.5295
     1.8518   1.8556   2.1964   2.2153   3.8740   3.9240   5.2143

          k = 0.1875 0.5413 0.0000 ( 38010 PWs)   bands (ev):

   -74.8735 -74.8732 -48.1497 -48.1487 -48.1484 -48.1470 -48.1466 -48.1457
   -48.1457 -48.1442 -48.1218 -48.1210 -48.1209 -48.1201 -48.1201 -48.1196
   -48.1188 -48.1182 -48.1035 -48.1026 -48.1023 -48.1010 -39.2504 -39.2496
   -39.1425 -39.1418 -39.0270 -39.0266 -13.5107 -13.5080 -13.2009 -13.1987
    -6.7494  -6.7465  -5.5729  -5.5704  -4.5645  -4.5620  -4.1711  -4.1687
    -4.0583  -4.0565  -3.2646  -3.2629  -0.6330  -0.6301   0.9933   0.9969
     1.6219   1.6235   2.4769   2.4895   3.6858   3.7104   5.2366

          k = 0.2500 0.4330 0.0000 ( 38031 PWs)   bands (ev):

   -74.8742 -74.8739 -48.1495 -48.1486 -48.1483 -48.1470 -48.1469 -48.1461
   -48.1461 -48.1446 -48.1218 -48.1208 -48.1208 -48.1201 -48.1200 -48.1196
   -48.1187 -48.1182 -48.1037 -48.1028 -48.1024 -48.1011 -39.2322 -39.2314
   -39.1431 -39.1424 -39.0299 -39.0296 -13.5029 -13.5006 -13.4805 -13.4780
    -6.1958  -6.1931  -5.5625  -5.5593  -4.4150  -4.4127  -4.3805  -4.3777
    -4.1720  -4.1685  -3.2826  -3.2817  -0.0422  -0.0329   0.0095   0.0131
     1.8377   1.8452   2.0712   2.0892   3.9493   4.0115   5.3852

          k = 0.2500 0.5052 0.0000 ( 38019 PWs)   bands (ev):

   -74.8733 -74.8731 -48.1492 -48.1482 -48.1479 -48.1470 -48.1465 -48.1461
   -48.1461 -48.1446 -48.1217 -48.1210 -48.1208 -48.1202 -48.1201 -48.1197
   -48.1189 -48.1183 -48.1035 -48.1026 -48.1023 -48.1009 -39.2344 -39.2336
   -39.1629 -39.1622 -39.0263 -39.0260 -13.4037 -13.4012 -13.2661 -13.2638
    -6.3672  -6.3644  -5.5922  -5.5893  -4.8088  -4.8060  -4.3766  -4.3744
    -4.0468  -4.0443  -3.5456  -3.5445  -0.1514  -0.1476   0.4446   0.4473
     1.5617   1.5630   2.4053   2.4279   3.8581   3.8706   5.1133

          k = 0.2500 0.5774 0.0000 ( 38023 PWs)   bands (ev):

   -74.8731 -74.8728 -48.1490 -48.1481 -48.1477 -48.1470 -48.1464 -48.1461
   -48.1460 -48.1447 -48.1217 -48.1212 -48.1208 -48.1203 -48.1202 -48.1197
   -48.1189 -48.1183 -48.1034 -48.1025 -48.1022 -48.1009 -39.2340 -39.2332
   -39.1711 -39.1704 -39.0250 -39.0247 -13.3685 -13.3659 -13.1862 -13.1839
    -6.4252  -6.4224  -5.5993  -5.5965  -4.9769  -4.9741  -4.2117  -4.2105
    -4.2079  -4.2059  -3.5629  -3.5616  -0.2119  -0.2091   0.8030   0.8039
     1.2251   1.2269   2.6973   2.7070   3.6097   3.6242   5.0349

          k = 0.3125 0.5413 0.0000 ( 38095 PWs)   bands (ev):

   -74.8729 -74.8727 -48.1487 -48.1477 -48.1475 -48.1472 -48.1466 -48.1465
   -48.1458 -48.1450 -48.1216 -48.1212 -48.1207 -48.1204 -48.1203 -48.1197
   -48.1190 -48.1184 -48.1034 -48.1025 -48.1022 -48.1009 -39.2191 -39.2183
   -39.1903 -39.1895 -39.0243 -39.0240 -13.2812 -13.2787 -13.2191 -13.2166
    -6.1148  -6.1121  -5.6290  -5.6260  -5.4151  -5.4122  -4.2216  -4.2197
    -3.9258  -3.9239  -3.8947  -3.8934   0.2279   0.2320   0.4087   0.4107
     1.0771   1.0788   2.8965   2.9170   3.5339   3.5442   4.8387

     the Fermi energy is    -0.0093 ev

!    total energy              =   -3113.96006468 Ry
     total all-electron energy =    -83998.684629 Ry
     estimated scf accuracy    <       0.00000002 Ry
     smearing contrib. (-TS)   =       0.00044727 Ry
     internal energy E=F+TS    =   -3113.96051196 Ry

     The total energy is F=E-TS. E is the sum of the following terms:
     one-electron contribution =  -22936.74526009 Ry
     hartree contribution      =   11455.52517490 Ry
     xc contribution           =    -193.57546990 Ry
     ewald contribution        =   10322.14906072 Ry
     one-center paw contrib.   =   -1761.31401758 Ry

     convergence has been achieved in  27 iterations

     Writing all to output data dir ./tmp/cleave_016/wse2_cleave_016.save/ :
     XML data file, charge density, pseudopotentials, collected wavefunctions

     init_run     :     40.86s CPU     49.31s WALL (       1 calls)
     electrons    :   2129.60s CPU   2638.10s WALL (       1 calls)

     Called by init_run:
     wfcinit      :     28.01s CPU     32.34s WALL (       1 calls)
     potinit      :     11.68s CPU     15.43s WALL (       1 calls)
     hinit0       :      0.14s CPU      0.14s WALL (       1 calls)

     Called by electrons:
     c_bands      :   1738.13s CPU   2140.62s WALL (      28 calls)
     sum_band     :    252.14s CPU    316.97s WALL (      28 calls)
     v_of_rho     :     60.65s CPU     77.47s WALL (      28 calls)
     newd         :     25.33s CPU     35.61s WALL (      28 calls)
     PAW_pot      :      4.72s CPU      6.02s WALL (      28 calls)
     mix_rho      :     59.25s CPU     75.75s WALL (      28 calls)
     vdW_kernel   :     10.20s CPU     13.14s WALL (       1 calls)

     Called by c_bands:
     init_us_2    :      4.92s CPU      6.33s WALL (    1710 calls)
     cegterg      :   1697.63s CPU   2093.15s WALL (     840 calls)

     Called by *egterg:
     cdiaghg      :     27.14s CPU     34.62s WALL (    3738 calls)
     h_psi        :    885.33s CPU   1100.96s WALL (    3798 calls)
     s_psi        :    103.53s CPU    128.75s WALL (    3798 calls)
     g_psi        :      1.30s CPU      1.72s WALL (    2928 calls)

     Called by h_psi:
     h_psi:calbec :    206.81s CPU    254.01s WALL (    3798 calls)
     vloc_psi     :    555.03s CPU    688.54s WALL (    3798 calls)
                                        0.00s GPU  (    3798 calls)
     add_vuspsi   :    122.09s CPU    156.75s WALL (    3798 calls)

     General routines
     calbec       :    294.94s CPU    361.97s WALL (    4638 calls)
     fft          :     43.68s CPU     54.00s WALL (    1763 calls)
     ffts         :     19.56s CPU     24.44s WALL (    3254 calls)
     fftw         :    653.17s CPU    812.96s WALL (  253862 calls)
     interpolate  :      0.82s CPU      1.02s WALL (      28 calls)

     Parallel routines

     PWSCF        :  36m17.80s CPU  44m57.61s WALL


   This run was terminated on:  17: 2:41  18Jun2026            

=------------------------------------------------------------------------------=
   JOB DONE.
=------------------------------------------------------------------------------=
Note: The following floating-point exceptions are signalling: IEEE_UNDERFLOW_FLAG IEEE_DENORMAL
Note: The following floating-point exceptions are signalling: IEEE_UNDERFLOW_FLAG IEEE_DENORMAL
Note: The following floating-point exceptions are signalling: IEEE_UNDERFLOW_FLAG IEEE_DENORMAL
Note: The following floating-point exceptions are signalling: IEEE_UNDERFLOW_FLAG IEEE_DENORMAL
Note: The following floating-point exceptions are signalling: IEEE_UNDERFLOW_FLAG IEEE_DENORMAL
Note: The following floating-point exceptions are signalling: IEEE_UNDERFLOW_FLAG IEEE_DENORMAL
Note: The following floating-point exceptions are signalling: IEEE_UNDERFLOW_FLAG IEEE_DENORMAL
Note: The following floating-point exceptions are signalling: IEEE_UNDERFLOW_FLAG IEEE_DENORMAL
Note: The following floating-point exceptions are signalling: IEEE_UNDERFLOW_FLAG IEEE_DENORMAL
Note: The following floating-point exceptions are signalling: IEEE_UNDERFLOW_FLAG IEEE_DENORMAL
Note: The following floating-point exceptions are signalling: IEEE_UNDERFLOW_FLAG IEEE_DENORMAL
Note: The following floating-point exceptions are signalling: IEEE_UNDERFLOW_FLAG IEEE_DENORMAL
