
     Program PWSCF v.7.5 starts on 18Jun2026 at 13: 5:20 

     This program is part of the open-source Quantum ESPRESSO suite
     for quantum simulation of materials; please cite
         "P. Giannozzi et al., J. Phys.:Condens. Matter 21 395502 (2009);
         "P. Giannozzi et al., J. Phys.:Condens. Matter 29 465901 (2017);
         "P. Giannozzi et al., J. Chem. Phys. 152 154105 (2020);
          URL http://www.quantum-espresso.org", 
     in publications or presentations arising from this work. More details at
     http://www.quantum-espresso.org/quote

     Parallel version (MPI), running on    12 processors

     MPI processes distributed on     1 nodes
     31846 MiB available memory on the printing compute node when the environment starts

     Waiting for input...
     Reading input from standard input

     Current dimensions of program PWSCF are:
     Max number of different atomic species (ntypx) = 10
     Max number of k-points (npk) =  40000
     Max angular momentum in pseudopotentials (lmaxx) =  4
     file W.pbe-spn-kjpaw_psl.1.0.0.UPF: wavefunction(s)  6S 5P 5D renormalized
     file Se.pbe-dn-kjpaw_psl.1.0.0.UPF: wavefunction(s)  4S 4P 3D renormalized

     IMPORTANT: XC functional enforced from input :
     Exchange-correlation= VDW-DF2-B86R
                           (   1   4  26   0   2   0   0)
     Any further DFT definition will be discarded
     Please, verify this is what you really want


     R & G space division:  proc/nbgrp/npool/nimage =      12
     Subspace diagonalization in iterative solution of the eigenvalue problem:
     a serial algorithm will be used


     Parallelization info
     --------------------
     sticks:   dense  smooth     PW     G-vecs:    dense   smooth      PW
     Min         139      70     20                71489    25322    3895
     Max         140      71     22                71558    25395    3945
     Sum        1675     847    253               858263   304337   46813

     Using Slab Decomposition



     bravais-lattice index     =            4
     lattice parameter (alat)  =       6.1983  a.u.
     unit-cell volume          =    3143.7277 (a.u.)^3
     number of atoms/cell      =            6
     number of atomic types    =            2
     number of electrons       =        92.00
     number of Kohn-Sham states=           55
     kinetic-energy cutoff     =      80.0000  Ry
     charge density cutoff     =     640.0000  Ry
     scf convergence threshold =      1.0E-07
     mixing beta               =       0.1000
     number of iterations used =           12  local-TF  mixing
     Exchange-correlation= VDW-DF2-B86R
                           (   1   4  26   0   2   0   0)

     celldm(1)=   6.198302  celldm(2)=   0.000000  celldm(3)=  15.243902
     celldm(4)=   0.000000  celldm(5)=   0.000000  celldm(6)=   0.000000

     crystal axes: (cart. coord. in units of alat)
               a(1) = (   1.000000   0.000000   0.000000 )  
               a(2) = (  -0.500000   0.866025   0.000000 )  
               a(3) = (   0.000000   0.000000  15.243902 )  

     reciprocal axes: (cart. coord. in units 2 pi/alat)
               b(1) = (  1.000000  0.577350 -0.000000 )  
               b(2) = (  0.000000  1.154701  0.000000 )  
               b(3) = (  0.000000 -0.000000  0.065600 )  


     PseudoPot. # 1 for W  read from file:
     ./pseudo/W.pbe-spn-kjpaw_psl.1.0.0.UPF
     MD5 check sum: 03c3df5b60893f488392c7401945500a
     Pseudo is Projector augmented-wave + core cor, Zval = 14.0
     Generated using &quot;atomic&quot; code by A. Dal Corso  v.6.2.2
     Shape of augmentation charge: PSQ
     Using radial grid of 1273 points,  6 beta functions with: 
                l(1) =   0
                l(2) =   0
                l(3) =   1
                l(4) =   1
                l(5) =   2
                l(6) =   2
     Q(r) pseudized with 0 coefficients 


     PseudoPot. # 2 for Se read from file:
     ./pseudo/Se.pbe-dn-kjpaw_psl.1.0.0.UPF
     MD5 check sum: ac240dd2bae32a30e0bf3a38df9c8785
     Pseudo is Projector augmented-wave + core cor, Zval = 16.0
     Generated using &quot;atomic&quot; code by A. Dal Corso  v.6.3
     Shape of augmentation charge: PSQ
     Using radial grid of 1211 points,  6 beta functions with: 
                l(1) =   0
                l(2) =   0
                l(3) =   1
                l(4) =   1
                l(5) =   2
                l(6) =   2
     Q(r) pseudized with 0 coefficients 


     atomic species   valence    mass     pseudopotential
     W                14.00   183.84000     W ( 1.00)
     Se               16.00    78.96000     Se( 1.00)

      6 Sym. Ops. (no inversion) found



   Cartesian axes

     site n.     atom                  positions (alat units)
         1        Se     tau(   1) = (  -0.0000005   0.5773506   6.1149390  )
         2        W      tau(   2) = (   0.0000000   0.0000000   6.6383232  )
         3        Se     tau(   3) = (   0.5000005   0.2886748   7.1618445  )
         4        Se     tau(   4) = (  -0.0000005   0.5773506   8.2645579  )
         5        W      tau(   5) = (   0.5000005   0.2886748   8.7878049  )
         6        Se     tau(   6) = (   0.0000000   0.0000000   9.3118902  )

     number of k points=    30  Methfessel-Paxton smearing, width (Ry)=  0.0200
                       cart. coord. in units 2pi/alat
        k(    1) = (   0.0000000   0.0000000   0.0000000), wk =   0.0078125
        k(    2) = (   0.0000000   0.0721688   0.0000000), wk =   0.0468750
        k(    3) = (   0.0000000   0.1443376   0.0000000), wk =   0.0468750
        k(    4) = (   0.0000000   0.2165064   0.0000000), wk =   0.0468750
        k(    5) = (   0.0000000   0.2886751   0.0000000), wk =   0.0468750
        k(    6) = (   0.0000000   0.3608439   0.0000000), wk =   0.0468750
        k(    7) = (   0.0000000   0.4330127   0.0000000), wk =   0.0468750
        k(    8) = (   0.0000000   0.5051815   0.0000000), wk =   0.0468750
        k(    9) = (   0.0000000  -0.5773503   0.0000000), wk =   0.0234375
        k(   10) = (   0.0625000   0.1082532   0.0000000), wk =   0.0468750
        k(   11) = (   0.0625000   0.1804220   0.0000000), wk =   0.0937500
        k(   12) = (   0.0625000   0.2525907   0.0000000), wk =   0.0937500
        k(   13) = (   0.0625000   0.3247595   0.0000000), wk =   0.0937500
        k(   14) = (   0.0625000   0.3969283   0.0000000), wk =   0.0937500
        k(   15) = (   0.0625000   0.4690971   0.0000000), wk =   0.0937500
        k(   16) = (   0.0625000   0.5412659   0.0000000), wk =   0.0937500
        k(   17) = (   0.1250000   0.2165064   0.0000000), wk =   0.0468750
        k(   18) = (   0.1250000   0.2886751   0.0000000), wk =   0.0937500
        k(   19) = (   0.1250000   0.3608439   0.0000000), wk =   0.0937500
        k(   20) = (   0.1250000   0.4330127   0.0000000), wk =   0.0937500
        k(   21) = (   0.1250000   0.5051815   0.0000000), wk =   0.0937500
        k(   22) = (   0.1250000   0.5773503   0.0000000), wk =   0.0468750
        k(   23) = (   0.1875000   0.3247595   0.0000000), wk =   0.0468750
        k(   24) = (   0.1875000   0.3969283   0.0000000), wk =   0.0937500
        k(   25) = (   0.1875000   0.4690971   0.0000000), wk =   0.0937500
        k(   26) = (   0.1875000   0.5412659   0.0000000), wk =   0.0937500
        k(   27) = (   0.2500000   0.4330127   0.0000000), wk =   0.0468750
        k(   28) = (   0.2500000   0.5051815   0.0000000), wk =   0.0937500
        k(   29) = (   0.2500000   0.5773503   0.0000000), wk =   0.0468750
        k(   30) = (   0.3125000   0.5412659   0.0000000), wk =   0.0468750

     Dense  grid:   858263 G-vectors     FFT dimensions: (  50,  50, 768)

     Smooth grid:   304337 G-vectors     FFT dimensions: (  36,  36, 540)

     Estimated max dynamical RAM per process >     350.14 MB

     Estimated total dynamical RAM >       4.10 GB

     Initial potential from superposition of free atoms

     starting charge      91.9986, renormalised to      92.0000

     negative rho (up, down):  1.726E-04 0.000E+00


     %%%%%%%%%%%%%%%%%%%%%%%%%%%%%%%%%%%%%%%%%%%%%%%%%%%%%%%%%%%%%%%%%%%%%%%%
     %                                                                      %
     % You are using vdW-DF, which was implemented by the Thonhauser group. %
     % Please cite the following two papers that made this development      %
     % possible and the two reviews that describe the various versions:     %
     %                                                                      %
     %   T. Thonhauser et al., PRL 115, 136402 (2015).                      %
     %   T. Thonhauser et al., PRB 76, 125112 (2007).                       %
     %   K. Berland et al., Rep. Prog. Phys. 78, 066501 (2015).             %
     %   D.C. Langreth et al., J. Phys.: Condens. Matter 21, 084203 (2009). %
     %                                                                      %
     % If you are calculating stress with vdW-DF, please also cite:         %
     %                                                                      %
     %   R. Sabatini et al., J. Phys.: Condens. Matter 24, 424209 (2012).   %
     %                                                                      %
     %%%%%%%%%%%%%%%%%%%%%%%%%%%%%%%%%%%%%%%%%%%%%%%%%%%%%%%%%%%%%%%%%%%%%%%%

     %%%%%%%%%%%%%%%%%%%%%%%%%%%%%%%%%%%%%%%%%%%%%%%%%%%%%%%%%%%%%%%%%%%%%%%%
     %                                                                      %
     %  vdW-DF NEWS:                                                        %
     %                                                                      %
     %  * vdW-DF3 is now available. DOI: 10.1021/acs.jctc.0c00471           %
     %    use with input_dft = 'vdW-DF3-opt1' or 'vdW-DF3-opt2'             %
     %                                                                      %
     %  * Unscreened and range-separated hybrid vdW-DF-cx functionals       %
     %    DOI: 10.1063/1.4986522 and 10.1088/1361-648X/ac2ad2               %
     %    use with input_dft = 'vdW-DF-cx0'    and 'vdW-DF-ahcx'            %
     %  * Unscreened and range-separated hybrid vdW-DF2-b86r functionals    %
     %    DOI: 10.1063/1.4986522 and DOI: 10.1103/PhysRevX.12.041003        %
     %    use with input_dft = 'vdW-DF2-br0' and 'vdW-DF2-ahbr'             %
     %                                                                      %
     %%%%%%%%%%%%%%%%%%%%%%%%%%%%%%%%%%%%%%%%%%%%%%%%%%%%%%%%%%%%%%%%%%%%%%%%


     Starting wfcs are   62 randomized atomic wfcs
     Checking if some PAW data can be deallocated... 

     total cpu time spent up to now is       29.3 secs

     per-process dynamical memory:   142.9 Mb

     Self-consistent Calculation

     iteration #  1     ecut=    80.00 Ry     beta= 0.10
     Davidson diagonalization with overlap
     ethr =  1.00E-02,  avg # of iterations =  3.9

     Threshold (ethr) on eigenvalues was too large:
     Diagonalizing with lowered threshold

     Davidson diagonalization with overlap
     ethr =  1.05E-04,  avg # of iterations =  6.0

     negative rho (up, down):  9.255E-05 0.000E+00

     total cpu time spent up to now is      137.2 secs

     total energy              =   -3114.00493349 Ry
     estimated scf accuracy    <       0.12449589 Ry

     iteration #  2     ecut=    80.00 Ry     beta= 0.10
     Davidson diagonalization with overlap
     ethr =  1.35E-04,  avg # of iterations =  1.0

     negative rho (up, down):  1.031E-04 0.000E+00

     total cpu time spent up to now is      176.5 secs

     total energy              =   -3113.96072456 Ry
     estimated scf accuracy    <       0.11251471 Ry

     iteration #  3     ecut=    80.00 Ry     beta= 0.10
     Davidson diagonalization with overlap
     ethr =  1.22E-04,  avg # of iterations =  3.8

     negative rho (up, down):  4.365E-05 0.000E+00

     total cpu time spent up to now is      229.1 secs

     total energy              =   -3113.97562805 Ry
     estimated scf accuracy    <       0.02187518 Ry

     iteration #  4     ecut=    80.00 Ry     beta= 0.10
     Davidson diagonalization with overlap
     ethr =  2.38E-05,  avg # of iterations =  2.2

     negative rho (up, down):  7.360E-06 0.000E+00

     total cpu time spent up to now is      276.4 secs

     total energy              =   -3113.97193464 Ry
     estimated scf accuracy    <       0.01888749 Ry

     iteration #  5     ecut=    80.00 Ry     beta= 0.10
     Davidson diagonalization with overlap
     ethr =  2.05E-05,  avg # of iterations =  3.1

     negative rho (up, down):  5.897E-06 0.000E+00

     total cpu time spent up to now is      327.6 secs

     total energy              =   -3113.97345988 Ry
     estimated scf accuracy    <       0.00278086 Ry

     iteration #  6     ecut=    80.00 Ry     beta= 0.10
     Davidson diagonalization with overlap
     c_bands:  1 eigenvalues not converged
     ethr =  3.02E-06,  avg # of iterations =  7.4

     negative rho (up, down):  3.799E-07 0.000E+00

     total cpu time spent up to now is      376.1 secs

     total energy              =   -3113.97276968 Ry
     estimated scf accuracy    <       0.00251699 Ry

     iteration #  7     ecut=    80.00 Ry     beta= 0.10
     Davidson diagonalization with overlap
     ethr =  2.74E-06,  avg # of iterations =  4.6

     negative rho (up, down):  2.634E-07 0.000E+00

     total cpu time spent up to now is      427.1 secs

     total energy              =   -3113.97275670 Ry
     estimated scf accuracy    <       0.00256294 Ry

     iteration #  8     ecut=    80.00 Ry     beta= 0.10
     Davidson diagonalization with overlap
     ethr =  2.74E-06,  avg # of iterations =  2.0

     negative rho (up, down):  6.320E-07 0.000E+00

     total cpu time spent up to now is      471.7 secs

     total energy              =   -3113.97268313 Ry
     estimated scf accuracy    <       0.00107795 Ry

     iteration #  9     ecut=    80.00 Ry     beta= 0.10
     Davidson diagonalization with overlap
     ethr =  1.17E-06,  avg # of iterations =  4.4

     negative rho (up, down):  6.666E-07 0.000E+00

     total cpu time spent up to now is      517.4 secs

     total energy              =   -3113.97272061 Ry
     estimated scf accuracy    <       0.00064253 Ry

     iteration # 10     ecut=    80.00 Ry     beta= 0.10
     Davidson diagonalization with overlap
     ethr =  6.98E-07,  avg # of iterations =  1.6

     negative rho (up, down):  2.374E-08 0.000E+00

     total cpu time spent up to now is      559.5 secs

     total energy              =   -3113.97266897 Ry
     estimated scf accuracy    <       0.00053715 Ry

     iteration # 11     ecut=    80.00 Ry     beta= 0.10
     Davidson diagonalization with overlap
     ethr =  5.84E-07,  avg # of iterations =  3.1

     negative rho (up, down):  1.082E-04 0.000E+00

     total cpu time spent up to now is      601.8 secs

     total energy              =   -3113.97264951 Ry
     estimated scf accuracy    <       0.00035569 Ry

     iteration # 12     ecut=    80.00 Ry     beta= 0.10
     Davidson diagonalization with overlap
     ethr =  3.87E-07,  avg # of iterations =  4.0

     negative rho (up, down):  1.050E-03 0.000E+00

     total cpu time spent up to now is      644.7 secs

     total energy              =   -3113.97265367 Ry
     estimated scf accuracy    <       0.00032496 Ry

     iteration # 13     ecut=    80.00 Ry     beta= 0.10
     Davidson diagonalization with overlap
     ethr =  3.53E-07,  avg # of iterations =  3.6

     negative rho (up, down):  1.477E-03 0.000E+00

     total cpu time spent up to now is      688.5 secs

     total energy              =   -3113.97266998 Ry
     estimated scf accuracy    <       0.00022177 Ry

     iteration # 14     ecut=    80.00 Ry     beta= 0.10
     Davidson diagonalization with overlap
     ethr =  2.41E-07,  avg # of iterations =  2.2

     negative rho (up, down):  1.332E-03 0.000E+00

     total cpu time spent up to now is      732.3 secs

     total energy              =   -3113.97266425 Ry
     estimated scf accuracy    <       0.00021311 Ry

     iteration # 15     ecut=    80.00 Ry     beta= 0.10
     Davidson diagonalization with overlap
     ethr =  2.32E-07,  avg # of iterations =  2.3

     negative rho (up, down):  9.662E-04 0.000E+00

     total cpu time spent up to now is      779.6 secs

     total energy              =   -3113.97269141 Ry
     estimated scf accuracy    <       0.00023422 Ry

     iteration # 16     ecut=    80.00 Ry     beta= 0.10
     Davidson diagonalization with overlap
     ethr =  2.32E-07,  avg # of iterations =  2.2

     negative rho (up, down):  3.842E-03 0.000E+00

     total cpu time spent up to now is      822.3 secs

     total energy              =   -3113.97262814 Ry
     estimated scf accuracy    <       0.00026430 Ry

     iteration # 17     ecut=    80.00 Ry     beta= 0.10
     Davidson diagonalization with overlap
     ethr =  2.32E-07,  avg # of iterations =  5.0

     negative rho (up, down):  4.102E-03 0.000E+00

     total cpu time spent up to now is      866.9 secs

     total energy              =   -3113.97258649 Ry
     estimated scf accuracy    <       0.00022528 Ry

     iteration # 18     ecut=    80.00 Ry     beta= 0.10
     Davidson diagonalization with overlap
     ethr =  2.32E-07,  avg # of iterations =  4.8

     negative rho (up, down):  3.147E-03 0.000E+00

     total cpu time spent up to now is      911.3 secs

     total energy              =   -3113.97261233 Ry
     estimated scf accuracy    <       0.00013341 Ry

     iteration # 19     ecut=    80.00 Ry     beta= 0.10
     Davidson diagonalization with overlap
     ethr =  1.45E-07,  avg # of iterations =  4.4

     negative rho (up, down):  3.284E-03 0.000E+00

     total cpu time spent up to now is      956.1 secs

     total energy              =   -3113.97244141 Ry
     estimated scf accuracy    <       0.00011942 Ry

     iteration # 20     ecut=    80.00 Ry     beta= 0.10
     Davidson diagonalization with overlap
     ethr =  1.30E-07,  avg # of iterations =  4.5

     negative rho (up, down):  3.237E-03 0.000E+00

     total cpu time spent up to now is     1007.6 secs

     total energy              =   -3113.97247495 Ry
     estimated scf accuracy    <       0.00006888 Ry

     iteration # 21     ecut=    80.00 Ry     beta= 0.10
     Davidson diagonalization with overlap
     ethr =  7.49E-08,  avg # of iterations =  1.7

     negative rho (up, down):  2.728E-03 0.000E+00

     total cpu time spent up to now is     1050.8 secs

     total energy              =   -3113.97258653 Ry
     estimated scf accuracy    <       0.00005291 Ry

     iteration # 22     ecut=    80.00 Ry     beta= 0.10
     Davidson diagonalization with overlap
     ethr =  5.75E-08,  avg # of iterations =  4.4

     negative rho (up, down):  2.066E-03 0.000E+00

     total cpu time spent up to now is     1098.3 secs

     total energy              =   -3113.97257208 Ry
     estimated scf accuracy    <       0.00004060 Ry

     iteration # 23     ecut=    80.00 Ry     beta= 0.10
     Davidson diagonalization with overlap
     ethr =  4.41E-08,  avg # of iterations =  3.8

     negative rho (up, down):  1.890E-03 0.000E+00

     total cpu time spent up to now is     1147.2 secs

     total energy              =   -3113.97257755 Ry
     estimated scf accuracy    <       0.00002024 Ry

     iteration # 24     ecut=    80.00 Ry     beta= 0.10
     Davidson diagonalization with overlap
     ethr =  2.20E-08,  avg # of iterations =  4.5

     negative rho (up, down):  9.283E-04 0.000E+00

     total cpu time spent up to now is     1195.4 secs

     total energy              =   -3113.97258740 Ry
     estimated scf accuracy    <       0.00000957 Ry

     iteration # 25     ecut=    80.00 Ry     beta= 0.10
     Davidson diagonalization with overlap
     ethr =  1.04E-08,  avg # of iterations =  3.5

     negative rho (up, down):  6.072E-04 0.000E+00

     total cpu time spent up to now is     1247.2 secs

     total energy              =   -3113.97258570 Ry
     estimated scf accuracy    <       0.00000476 Ry

     iteration # 26     ecut=    80.00 Ry     beta= 0.10
     Davidson diagonalization with overlap
     ethr =  5.17E-09,  avg # of iterations =  4.1

     negative rho (up, down):  4.273E-04 0.000E+00

     total cpu time spent up to now is     1296.3 secs

     total energy              =   -3113.97258727 Ry
     estimated scf accuracy    <       0.00000059 Ry

     iteration # 27     ecut=    80.00 Ry     beta= 0.10
     Davidson diagonalization with overlap
     ethr =  6.43E-10,  avg # of iterations =  3.1

     negative rho (up, down):  2.644E-04 0.000E+00

     total cpu time spent up to now is     1342.2 secs

     total energy              =   -3113.97258769 Ry
     estimated scf accuracy    <       0.00000103 Ry

     iteration # 28     ecut=    80.00 Ry     beta= 0.10
     Davidson diagonalization with overlap
     ethr =  6.43E-10,  avg # of iterations =  3.0

     negative rho (up, down):  1.878E-04 0.000E+00

     total cpu time spent up to now is     1392.6 secs

     total energy              =   -3113.97258751 Ry
     estimated scf accuracy    <       0.00000051 Ry

     iteration # 29     ecut=    80.00 Ry     beta= 0.10
     Davidson diagonalization with overlap
     ethr =  5.50E-10,  avg # of iterations =  2.0

     negative rho (up, down):  1.709E-04 0.000E+00

     total cpu time spent up to now is     1438.6 secs

     End of self-consistent calculation

          k = 0.0000 0.0000 0.0000 ( 38015 PWs)   bands (ev):

   -74.8860 -74.8816 -48.1608 -48.1608 -48.1589 -48.1589 -48.1548 -48.1548
   -48.1504 -48.1504 -48.1323 -48.1323 -48.1276 -48.1276 -48.1274 -48.1274
   -48.1192 -48.1192 -48.1191 -48.1144 -48.1132 -48.1049 -39.0796 -39.0776
   -39.0440 -39.0440 -39.0376 -39.0376 -15.5463 -15.4946 -14.4909 -14.4099
    -7.1408  -6.8520  -3.7098  -3.3603  -3.3602  -3.3490  -3.3490  -2.9757
    -1.4809  -1.0389  -0.6950  -0.6950  -0.6878  -0.6878   0.1885   0.1885
     0.2136   0.2136   3.3829   3.3829   3.4170   3.4232   3.4232

          k = 0.0000 0.0722 0.0000 ( 37975 PWs)   bands (ev):

   -74.8856 -74.8812 -48.1608 -48.1606 -48.1589 -48.1587 -48.1548 -48.1546
   -48.1504 -48.1502 -48.1324 -48.1323 -48.1276 -48.1276 -48.1274 -48.1274
   -48.1193 -48.1192 -48.1190 -48.1144 -48.1131 -48.1049 -39.0778 -39.0758
   -39.0531 -39.0466 -39.0461 -39.0397 -15.4852 -15.4335 -14.4621 -14.3824
    -7.0587  -6.7700  -4.0329  -3.7223  -3.3257  -3.3144  -3.1013  -2.6979
    -1.5172  -1.2359  -0.9991  -0.9261  -0.9160  -0.8985   0.1738   0.2401
     0.3911   0.4149   3.0594   3.0892   3.3375   3.3851   3.5633

          k = 0.0000 0.1443 0.0000 ( 37895 PWs)   bands (ev):

   -74.8845 -74.8800 -48.1607 -48.1601 -48.1589 -48.1582 -48.1548 -48.1541
   -48.1504 -48.1497 -48.1326 -48.1324 -48.1278 -48.1276 -48.1276 -48.1274
   -48.1195 -48.1193 -48.1187 -48.1141 -48.1128 -48.1046 -39.0790 -39.0727
   -39.0725 -39.0703 -39.0522 -39.0457 -15.3061 -15.2546 -14.3779 -14.3021
    -6.8196  -6.5322  -4.4921  -4.2330  -3.2433  -3.2313  -2.8821  -2.5274
    -2.0619  -2.0096  -1.3121  -1.3028  -1.2980  -1.0173   0.1368   0.3188
     0.6933   0.7211   2.4815   2.5759   3.2546   3.3148   3.8624

          k = 0.0000 0.2165 0.0000 ( 37851 PWs)   bands (ev):

   -74.8828 -74.8783 -48.1607 -48.1593 -48.1589 -48.1574 -48.1548 -48.1533
   -48.1504 -48.1489 -48.1329 -48.1325 -48.1281 -48.1279 -48.1277 -48.1275
   -48.1198 -48.1194 -48.1183 -48.1137 -48.1125 -48.1042 -39.1173 -39.1108
   -39.0649 -39.0629 -39.0612 -39.0547 -15.0225 -14.9716 -14.2447 -14.1753
    -6.4514  -6.1710  -4.9140  -4.6982  -3.3213  -3.2909  -3.1816  -3.1681
    -2.6065  -2.2943  -1.6068  -1.5890  -1.4117  -1.2235   0.1364   0.3960
     0.8931   0.9270   2.1155   2.3856   3.2219   3.2939   4.2581

          k = 0.0000 0.2887 0.0000 ( 37919 PWs)   bands (ev):

   -74.8808 -74.8763 -48.1608 -48.1589 -48.1584 -48.1566 -48.1548 -48.1525
   -48.1504 -48.1481 -48.1332 -48.1326 -48.1284 -48.1283 -48.1278 -48.1276
   -48.1201 -48.1195 -48.1179 -48.1133 -48.1120 -48.1038 -39.1622 -39.1557
   -39.0718 -39.0654 -39.0557 -39.0537 -14.6609 -14.6118 -14.0716 -14.0107
    -6.0470  -5.8045  -5.2102  -5.0240  -4.3759  -4.3456  -3.2289  -3.2131
    -2.7508  -2.5043  -1.7075  -1.6857  -1.6844  -1.5780   0.2614   0.5614
     0.9976   1.0330   2.1946   2.6330   3.2604   3.3451   4.7407

          k = 0.0000 0.3608 0.0000 ( 37933 PWs)   bands (ev):

   -74.8787 -74.8743 -48.1608 -48.1589 -48.1576 -48.1557 -48.1548 -48.1516
   -48.1504 -48.1472 -48.1336 -48.1327 -48.1287 -48.1286 -48.1279 -48.1278
   -48.1204 -48.1196 -48.1175 -48.1128 -48.1116 -48.1033 -39.2067 -39.2002
   -39.0824 -39.0760 -39.0466 -39.0446 -14.2741 -14.2293 -13.8609 -13.8100
    -5.9714  -5.8824  -5.3991  -5.3020  -5.0170  -4.8117  -3.3793  -3.3617
    -3.0600  -2.8900  -1.9905  -1.8879  -1.6523  -1.6204   0.5948   0.8831
     1.0951   1.1241   2.5957   3.1129   3.3265   3.4255   4.8961

          k = 0.0000 0.4330 0.0000 ( 37998 PWs)   bands (ev):

   -74.8770 -74.8726 -48.1609 -48.1589 -48.1568 -48.1550 -48.1549 -48.1509
   -48.1504 -48.1465 -48.1339 -48.1328 -48.1290 -48.1289 -48.1280 -48.1278
   -48.1207 -48.1197 -48.1171 -48.1125 -48.1112 -48.1030 -39.2442 -39.2377
   -39.0914 -39.0849 -39.0388 -39.0368 -13.9645 -13.9284 -13.5930 -13.5517
    -6.5461  -6.5113  -5.6926  -5.5511  -4.7744  -4.6349  -3.5447  -3.5260
    -3.3572  -3.1774  -2.1734  -2.0843  -1.5632  -1.5209   1.0763   1.2411
     1.2589   1.3157   3.0938   3.3811   3.4913   3.4933   4.4660

          k = 0.0000 0.5052 0.0000 ( 38048 PWs)   bands (ev):

   -74.8759 -74.8715 -48.1609 -48.1589 -48.1563 -48.1549 -48.1545 -48.1504
   -48.1504 -48.1460 -48.1341 -48.1329 -48.1292 -48.1291 -48.1281 -48.1279
   -48.1209 -48.1197 -48.1169 -48.1122 -48.1110 -48.1027 -39.2691 -39.2626
   -39.0974 -39.0909 -39.0336 -39.0317 -13.7967 -13.7710 -13.3200 -13.2889
    -7.1082  -7.0772  -5.6915  -5.5844  -4.8259  -4.7322  -3.6618  -3.6425
    -3.3046  -3.1057  -2.2808  -2.2166  -1.5068  -1.4563   1.3959   1.4054
     1.5784   1.7436   3.2897   3.4123   3.5336   3.5452   4.3428

          k = 0.0000-0.5774 0.0000 ( 38024 PWs)   bands (ev):

   -74.8755 -74.8711 -48.1609 -48.1589 -48.1562 -48.1549 -48.1543 -48.1504
   -48.1502 -48.1458 -48.1342 -48.1329 -48.1292 -48.1292 -48.1281 -48.1279
   -48.1209 -48.1197 -48.1168 -48.1121 -48.1109 -48.1027 -39.2778 -39.2713
   -39.0995 -39.0930 -39.0318 -39.0298 -13.7440 -13.7235 -13.2024 -13.1779
    -7.3187  -7.2927  -5.6301  -5.5780  -4.9472  -4.8495  -3.7033  -3.6838
    -3.1782  -3.0062  -2.3304  -2.2737  -1.4895  -1.4361   1.4636   1.4720
     1.8336   1.9253   3.3334   3.4221   3.5344   3.5466   4.0605

          k = 0.0625 0.1083 0.0000 ( 37895 PWs)   bands (ev):

   -74.8848 -74.8804 -48.1607 -48.1602 -48.1589 -48.1584 -48.1548 -48.1543
   -48.1504 -48.1499 -48.1325 -48.1324 -48.1277 -48.1276 -48.1276 -48.1274
   -48.1194 -48.1193 -48.1188 -48.1142 -48.1129 -48.1047 -39.0743 -39.0723
   -39.0702 -39.0638 -39.0505 -39.0440 -15.3651 -15.3135 -14.4056 -14.3285
    -6.8978  -6.6096  -4.3679  -4.0949  -3.2748  -3.2635  -2.9151  -2.5197
    -1.8007  -1.7596  -1.3256  -1.3100  -1.1989  -0.9188   0.2189   0.3628
     0.5435   0.5674   2.7172   2.7600   3.2083   3.2441   3.7767

          k = 0.0625 0.1804 0.0000 ( 37885 PWs)   bands (ev):

   -74.8834 -74.8790 -48.1607 -48.1596 -48.1589 -48.1578 -48.1547 -48.1537
   -48.1504 -48.1493 -48.1328 -48.1325 -48.1280 -48.1278 -48.1277 -48.1275
   -48.1196 -48.1194 -48.1185 -48.1139 -48.1126 -48.1044 -39.1016 -39.0951
   -39.0680 -39.0659 -39.0586 -39.0522 -15.1333 -15.0821 -14.2970 -14.2251
    -6.5904  -6.3055  -4.7691  -4.5380  -3.2678  -3.2555  -2.9096  -2.7453
    -2.5248  -2.3831  -1.6845  -1.6319  -1.2391  -0.9791   0.2595   0.4296
     0.6589   0.6977   2.3957   2.5582   3.0533   3.1054   4.1125

          k = 0.0625 0.2526 0.0000 ( 37916 PWs)   bands (ev):

   -74.8816 -74.8771 -48.1607 -48.1589 -48.1588 -48.1570 -48.1547 -48.1529
   -48.1504 -48.1485 -48.1331 -48.1326 -48.1283 -48.1281 -48.1278 -48.1276
   -48.1199 -48.1195 -48.1181 -48.1135 -48.1122 -48.1040 -39.1423 -39.1358
   -39.0697 -39.0633 -39.0592 -39.0571 -14.8088 -14.7588 -14.1448 -14.0804
    -6.1819  -5.9123  -5.1172  -4.9217  -3.9155  -3.8979  -3.2186  -3.1891
    -2.6992  -2.5088  -1.9421  -1.8936  -1.2794  -1.1185   0.1942   0.3904
     0.8421   0.9428   2.2874   2.5504   3.0764   3.1356   4.5517

          k = 0.0625 0.3248 0.0000 ( 37964 PWs)   bands (ev):

   -74.8795 -74.8751 -48.1607 -48.1588 -48.1580 -48.1561 -48.1547 -48.1520
   -48.1504 -48.1476 -48.1334 -48.1327 -48.1286 -48.1285 -48.1279 -48.1277
   -48.1203 -48.1196 -48.1177 -48.1130 -48.1118 -48.1035 -39.1860 -39.1794
   -39.0812 -39.0748 -39.0502 -39.0482 -14.4279 -14.3808 -13.9571 -13.9021
    -5.8682  -5.6886  -5.2740  -5.1203  -4.8641  -4.7755  -3.4519  -3.4209
    -2.7867  -2.6505  -2.2538  -2.2418  -1.3133  -1.2162   0.2877   0.5100
     1.0947   1.1854   2.4168   2.7039   3.2155   3.3423   5.0521

          k = 0.0625 0.3969 0.0000 ( 37981 PWs)   bands (ev):

   -74.8777 -74.8732 -48.1607 -48.1588 -48.1572 -48.1553 -48.1548 -48.1512
   -48.1503 -48.1468 -48.1338 -48.1328 -48.1289 -48.1288 -48.1280 -48.1278
   -48.1206 -48.1197 -48.1173 -48.1126 -48.1114 -48.1031 -39.2260 -39.2195
   -39.0920 -39.0855 -39.0418 -39.0398 -14.0669 -14.0261 -13.7253 -13.6803
    -6.1594  -6.1291  -5.5984  -5.4641  -4.8744  -4.6774  -3.7078  -3.6632
    -3.0301  -2.9407  -2.4923  -2.4597  -1.2892  -1.2346   0.5908   0.7785
     1.3644   1.4445   2.7091   2.8941   3.3980   3.6362   4.8003

          k = 0.0625 0.4691 0.0000 ( 38057 PWs)   bands (ev):

   -74.8763 -74.8718 -48.1608 -48.1588 -48.1566 -48.1548 -48.1548 -48.1507
   -48.1503 -48.1463 -48.1340 -48.1329 -48.1291 -48.1290 -48.1281 -48.1279
   -48.1208 -48.1197 -48.1170 -48.1123 -48.1111 -48.1028 -39.2565 -39.2499
   -39.1002 -39.0937 -39.0353 -39.0334 -13.8329 -13.8025 -13.4410 -13.4055
    -6.8109  -6.7772  -5.6950  -5.5709  -4.7157  -4.6171  -3.8305  -3.7731
    -3.2103  -3.0950  -2.5895  -2.5587  -1.2795  -1.2578   0.9972   1.1182
     1.6321   1.7133   2.9633   3.0500   3.5242   3.6973   4.5893

          k = 0.0625 0.5413 0.0000 ( 38034 PWs)   bands (ev):

   -74.8755 -74.8711 -48.1608 -48.1587 -48.1563 -48.1548 -48.1544 -48.1504
   -48.1502 -48.1459 -48.1342 -48.1329 -48.1292 -48.1292 -48.1281 -48.1280
   -48.1209 -48.1198 -48.1168 -48.1121 -48.1109 -48.1027 -39.2729 -39.2663
   -39.1046 -39.0981 -39.0318 -39.0299 -13.7282 -13.7066 -13.2298 -13.2042
    -7.2073  -7.1799  -5.6430  -5.5718  -4.8691  -4.7724  -3.8210  -3.8003
    -3.1489  -3.0140  -2.6308  -2.6206  -1.2999  -1.2922   1.3436   1.3866
     1.7986   1.8766   3.1072   3.2096   3.3918   3.6328   4.3596

          k = 0.1250 0.2165 0.0000 ( 37933 PWs)   bands (ev):

   -74.8818 -74.8774 -48.1606 -48.1590 -48.1588 -48.1572 -48.1547 -48.1531
   -48.1503 -48.1487 -48.1330 -48.1326 -48.1282 -48.1281 -48.1278 -48.1276
   -48.1199 -48.1195 -48.1182 -48.1135 -48.1123 -48.1040 -39.1340 -39.1275
   -39.0704 -39.0642 -39.0603 -39.0581 -14.8595 -14.8092 -14.1699 -14.1043
    -6.2298  -5.9524  -5.0719  -4.8720  -3.7469  -3.7328  -3.0708  -2.9081
    -2.9037  -2.8855  -1.9751  -1.8591  -1.1394  -0.9039   0.2519   0.3024
     0.6304   0.8605   2.6216   2.6717   2.7122   2.9012   4.4898

          k = 0.1250 0.2887 0.0000 ( 37936 PWs)   bands (ev):

   -74.8800 -74.8755 -48.1605 -48.1587 -48.1583 -48.1565 -48.1546 -48.1524
   -48.1502 -48.1480 -48.1333 -48.1327 -48.1285 -48.1284 -48.1279 -48.1277
   -48.1202 -48.1196 -48.1177 -48.1131 -48.1119 -48.1036 -39.1713 -39.1648
   -39.0841 -39.0777 -39.0521 -39.0501 -14.5095 -14.4612 -14.0067 -13.9496
    -5.8104  -5.5693  -5.3030  -5.1317  -4.5574  -4.5363  -3.4818  -3.4050
    -2.9924  -2.9612  -2.2360  -2.1712  -1.0166  -0.8352   0.0293   0.1831
     1.0150   1.2108   2.3912   2.3989   2.9940   3.2911   4.9695

          k = 0.1250 0.3608 0.0000 ( 38000 PWs)   bands (ev):

   -74.8781 -74.8737 -48.1605 -48.1586 -48.1576 -48.1558 -48.1545 -48.1517
   -48.1501 -48.1473 -48.1337 -48.1328 -48.1288 -48.1287 -48.1281 -48.1279
   -48.1204 -48.1197 -48.1174 -48.1127 -48.1115 -48.1032 -39.2080 -39.2015
   -39.0982 -39.0918 -39.0437 -39.0418 -14.1324 -14.0886 -13.8132 -13.7661
    -5.7712  -5.7102  -5.4289  -5.3399  -5.0179  -4.7834  -3.8576  -3.8008
    -3.0997  -3.0644  -2.6580  -2.6202  -0.9168  -0.7908   0.1163   0.3135
     1.4202   1.5443   2.2864   2.3489   3.3332   3.6768   5.3446

          k = 0.1250 0.4330 0.0000 ( 38048 PWs)   bands (ev):

   -74.8766 -74.8721 -48.1604 -48.1585 -48.1570 -48.1552 -48.1544 -48.1511
   -48.1500 -48.1467 -48.1339 -48.1329 -48.1290 -48.1289 -48.1282 -48.1280
   -48.1207 -48.1198 -48.1170 -48.1124 -48.1111 -48.1029 -39.2389 -39.2324
   -39.1103 -39.1038 -39.0366 -39.0346 -13.8343 -13.7994 -13.5642 -13.5266
    -6.3758  -6.3441  -5.6424  -5.5172  -4.6515  -4.4962  -4.1157  -4.0359
    -3.2299  -3.1961  -3.0241  -2.9908  -0.9149  -0.8345   0.4732   0.6487
     1.7297   1.7910   2.3667   2.4671   3.6159   3.8792   5.0342

          k = 0.1250 0.5052 0.0000 ( 38027 PWs)   bands (ev):

   -74.8755 -74.8711 -48.1604 -48.1584 -48.1566 -48.1548 -48.1544 -48.1507
   -48.1499 -48.1463 -48.1341 -48.1330 -48.1291 -48.1291 -48.1282 -48.1280
   -48.1208 -48.1199 -48.1168 -48.1122 -48.1109 -48.1027 -39.2594 -39.2528
   -39.1184 -39.1119 -39.0318 -39.0299 -13.6818 -13.6576 -13.3035 -13.2758
    -6.8953  -6.8663  -5.6443  -5.5575  -4.6755  -4.5867  -4.0889  -4.0095
    -3.3224  -3.2841  -3.1421  -3.0813  -0.9934  -0.9321   0.9518   1.0703
     1.8226   1.8568   2.5498   2.6604   3.5735   3.8186   4.8666

          k = 0.1250 0.5774 0.0000 ( 37968 PWs)   bands (ev):

   -74.8751 -74.8707 -48.1604 -48.1583 -48.1565 -48.1546 -48.1544 -48.1505
   -48.1499 -48.1461 -48.1341 -48.1330 -48.1292 -48.1291 -48.1282 -48.1281
   -48.1209 -48.1199 -48.1167 -48.1121 -48.1108 -48.1026 -39.2666 -39.2600
   -39.1212 -39.1148 -39.0302 -39.0282 -13.6341 -13.6151 -13.1930 -13.1716
    -7.0871  -7.0610  -5.6057  -5.5640  -4.7828  -4.6862  -4.0520  -4.0043
    -3.3420  -3.3029  -3.1175  -3.0503  -1.0443  -0.9841   1.2915   1.3147
     1.7212   1.7732   2.7003   2.7623   3.4554   3.6916   4.7876

          k = 0.1875 0.3248 0.0000 ( 37987 PWs)   bands (ev):

   -74.8783 -74.8738 -48.1603 -48.1584 -48.1578 -48.1560 -48.1544 -48.1519
   -48.1499 -48.1475 -48.1336 -48.1328 -48.1287 -48.1286 -48.1281 -48.1279
   -48.1204 -48.1197 -48.1174 -48.1128 -48.1115 -48.1033 -39.1999 -39.1934
   -39.1023 -39.0958 -39.0444 -39.0424 -14.1551 -14.1102 -13.8437 -13.7960
    -5.5507  -5.4220  -5.3892  -5.3462  -5.0790  -4.8610  -3.8680  -3.7929
    -3.3976  -3.3793  -2.5192  -2.5187  -0.6952  -0.5260  -0.1353   0.0495
     1.4129   1.5724   2.1154   2.1250   3.3206   3.6846   5.4728

          k = 0.1875 0.3969 0.0000 ( 38014 PWs)   bands (ev):

   -74.8767 -74.8723 -48.1601 -48.1581 -48.1574 -48.1555 -48.1541 -48.1514
   -48.1497 -48.1470 -48.1338 -48.1330 -48.1289 -48.1288 -48.1282 -48.1280
   -48.1206 -48.1199 -48.1171 -48.1124 -48.1112 -48.1029 -39.2246 -39.2181
   -39.1207 -39.1142 -39.0373 -39.0353 -13.8096 -13.7710 -13.6573 -13.6201
    -5.9541  -5.9309  -5.5931  -5.4739  -4.7330  -4.5070  -4.2121  -4.1442
    -3.7460  -3.7199  -2.9399  -2.9045  -0.5084  -0.3869   0.0055   0.1837
     1.7446   1.8355   2.0114   2.0786   3.6619   3.9781   5.4985

          k = 0.1875 0.4691 0.0000 ( 38010 PWs)   bands (ev):

   -74.8755 -74.8711 -48.1599 -48.1579 -48.1570 -48.1552 -48.1539 -48.1511
   -48.1495 -48.1467 -48.1340 -48.1331 -48.1291 -48.1290 -48.1283 -48.1281
   -48.1207 -48.1200 -48.1168 -48.1122 -48.1109 -48.1027 -39.2425 -39.2360
   -39.1356 -39.1291 -39.0319 -39.0299 -13.6084 -13.5811 -13.4030 -13.3744
    -6.4699  -6.4452  -5.6220  -5.5377  -4.4989  -4.4188  -4.2992  -4.1679
    -4.0039  -3.9601  -3.2272  -3.2093  -0.5803  -0.4906   0.4592   0.5832
     1.8318   1.8667   2.1325   2.2748   3.8041   3.9907   5.2623

          k = 0.1875 0.5413 0.0000 ( 38010 PWs)   bands (ev):

   -74.8748 -74.8704 -48.1599 -48.1578 -48.1568 -48.1550 -48.1538 -48.1510
   -48.1493 -48.1465 -48.1340 -48.1332 -48.1291 -48.1290 -48.1284 -48.1282
   -48.1208 -48.1200 -48.1167 -48.1120 -48.1108 -48.1026 -39.2519 -39.2454
   -39.1440 -39.1375 -39.0289 -39.0270 -13.5244 -13.5063 -13.2153 -13.1959
    -6.7703  -6.7444  -5.6074  -5.5650  -4.6223  -4.5350  -4.2202  -4.1522
    -4.0825  -4.0338  -3.2790  -3.2641  -0.6840  -0.6005   0.9576   1.0166
     1.6071   1.6319   2.4049   2.5211   3.5732   3.8149   5.1845

          k = 0.2500 0.4330 0.0000 ( 38031 PWs)   bands (ev):

   -74.8755 -74.8711 -48.1597 -48.1577 -48.1572 -48.1554 -48.1537 -48.1514
   -48.1492 -48.1469 -48.1339 -48.1331 -48.1290 -48.1289 -48.1284 -48.1282
   -48.1207 -48.1201 -48.1168 -48.1122 -48.1109 -48.1027 -39.2337 -39.2271
   -39.1446 -39.1381 -39.0319 -39.0299 -13.5304 -13.5012 -13.4884 -13.4664
    -6.2083  -6.1996  -5.6141  -5.5371  -4.5135  -4.4179  -4.3992  -4.3351
    -4.2208  -4.0974  -3.3237  -3.2584  -0.1599  -0.0328   0.0088   0.0960
     1.7945   1.8663   2.0186   2.1577   3.9120   4.0674   5.3192

          k = 0.2500 0.5052 0.0000 ( 38019 PWs)   bands (ev):

   -74.8747 -74.8702 -48.1594 -48.1575 -48.1571 -48.1554 -48.1533 -48.1514
   -48.1488 -48.1470 -48.1339 -48.1333 -48.1291 -48.1289 -48.1285 -48.1283
   -48.1208 -48.1202 -48.1166 -48.1120 -48.1108 -48.1025 -39.2359 -39.2294
   -39.1644 -39.1579 -39.0282 -39.0263 -13.4182 -13.3995 -13.2796 -13.2610
    -6.3847  -6.3664  -5.6222  -5.5834  -4.8297  -4.8083  -4.4393  -4.3505
    -4.0971  -4.0050  -3.5765  -3.5241  -0.2121  -0.1170   0.4095   0.4727
     1.5560   1.5614   2.2849   2.5279   3.7652   3.9170   5.0501

          k = 0.2500 0.5774 0.0000 ( 38023 PWs)   bands (ev):

   -74.8744 -74.8700 -48.1592 -48.1575 -48.1570 -48.1555 -48.1532 -48.1514
   -48.1486 -48.1470 -48.1339 -48.1333 -48.1291 -48.1290 -48.1285 -48.1284
   -48.1208 -48.1202 -48.1166 -48.1120 -48.1107 -48.1025 -39.2355 -39.2289
   -39.1726 -39.1661 -39.0270 -39.0250 -13.3795 -13.3666 -13.1970 -13.1844
    -6.4465  -6.4206  -5.6202  -5.5989  -4.9954  -4.9757  -4.3157  -4.2257
    -4.2072  -4.1424  -3.5848  -3.5509  -0.2679  -0.1782   0.7623   0.8275
     1.2150   1.2331   2.6043   2.7258   3.5598   3.6760   4.9466

          k = 0.3125 0.5413 0.0000 ( 38095 PWs)   bands (ev):

   -74.8743 -74.8698 -48.1588 -48.1577 -48.1567 -48.1558 -48.1528 -48.1517
   -48.1483 -48.1473 -48.1339 -48.1334 -48.1291 -48.1289 -48.1286 -48.1284
   -48.1208 -48.1203 -48.1166 -48.1119 -48.1107 -48.1025 -39.2206 -39.2141
   -39.1918 -39.1852 -39.0263 -39.0243 -13.2911 -13.2808 -13.2283 -13.2183
    -6.1343  -6.1134  -5.6445  -5.6313  -5.4340  -5.4116  -4.2966  -4.1989
    -3.9705  -3.9393  -3.9108  -3.8324   0.1545   0.2623   0.3695   0.4500
     1.0702   1.0817   2.7496   3.0086   3.4179   3.6081   4.8182

     the Fermi energy is    -0.0217 ev

!    total energy              =   -3113.97258706 Ry
     total all-electron energy =    -83998.697151 Ry
     estimated scf accuracy    <       0.00000004 Ry
     smearing contrib. (-TS)   =       0.00055558 Ry
     internal energy E=F+TS    =   -3113.97314264 Ry

     The total energy is F=E-TS. E is the sum of the following terms:
     one-electron contribution =  -28166.48173881 Ry
     hartree contribution      =   14070.37444483 Ry
     xc contribution           =    -193.59308820 Ry
     ewald contribution        =   12937.04122768 Ry
     one-center paw contrib.   =   -1761.31398814 Ry

     convergence has been achieved in  29 iterations

     Writing all to output data dir ./tmp/cleave_003/wse2_cleave_003.save/ :
     XML data file, charge density, pseudopotentials, collected wavefunctions

     init_run     :     28.53s CPU     28.92s WALL (       1 calls)
     electrons    :   1377.74s CPU   1409.40s WALL (       1 calls)

     Called by init_run:
     wfcinit      :     15.72s CPU     15.80s WALL (       1 calls)
     potinit      :     11.80s CPU     11.90s WALL (       1 calls)
     hinit0       :      0.10s CPU      0.11s WALL (       1 calls)

     Called by electrons:
     c_bands      :   1161.10s CPU   1181.12s WALL (      30 calls)
     sum_band     :    154.89s CPU    161.05s WALL (      30 calls)
     v_of_rho     :     35.85s CPU     37.30s WALL (      30 calls)
     newd         :     21.40s CPU     25.41s WALL (      30 calls)
     PAW_pot      :      2.98s CPU      3.05s WALL (      30 calls)
     mix_rho      :     13.45s CPU     13.67s WALL (      30 calls)
     vdW_kernel   :     10.86s CPU     10.86s WALL (       1 calls)

     Called by c_bands:
     init_us_2    :      4.82s CPU      4.84s WALL (    1830 calls)
     cegterg      :   1129.49s CPU   1148.58s WALL (     900 calls)

     Called by *egterg:
     cdiaghg      :     11.91s CPU     11.94s WALL (    4054 calls)
     h_psi        :    448.04s CPU    453.45s WALL (    4114 calls)
     s_psi        :     93.40s CPU     93.46s WALL (    4114 calls)
     g_psi        :      0.90s CPU      0.90s WALL (    3184 calls)

     Called by h_psi:
     h_psi:calbec :    172.84s CPU    176.04s WALL (    4114 calls)
     vloc_psi     :    172.23s CPU    174.34s WALL (    4114 calls)
                                        0.00s GPU  (    4114 calls)
     add_vuspsi   :    101.61s CPU    101.69s WALL (    4114 calls)

     General routines
     calbec       :    251.51s CPU    255.96s WALL (    5014 calls)
     fft          :     17.65s CPU     18.06s WALL (    1889 calls)
     ffts         :      5.40s CPU      5.49s WALL (    3504 calls)
     fftw         :    195.03s CPU    197.52s WALL (  270590 calls)
     interpolate  :      0.30s CPU      0.31s WALL (      30 calls)

     Parallel routines

     PWSCF        :  23m27.13s CPU  23m59.49s WALL


   This run was terminated on:  13:29:20  18Jun2026            

=------------------------------------------------------------------------------=
   JOB DONE.
=------------------------------------------------------------------------------=
Note: The following floating-point exceptions are signalling: IEEE_UNDERFLOW_FLAG IEEE_DENORMAL
Note: The following floating-point exceptions are signalling: IEEE_UNDERFLOW_FLAG IEEE_DENORMAL
Note: The following floating-point exceptions are signalling: IEEE_UNDERFLOW_FLAG IEEE_DENORMAL
Note: The following floating-point exceptions are signalling: IEEE_UNDERFLOW_FLAG IEEE_DENORMAL
Note: The following floating-point exceptions are signalling: IEEE_UNDERFLOW_FLAG IEEE_DENORMAL
Note: The following floating-point exceptions are signalling: IEEE_UNDERFLOW_FLAG IEEE_DENORMAL
Note: The following floating-point exceptions are signalling: IEEE_UNDERFLOW_FLAG IEEE_DENORMAL
Note: The following floating-point exceptions are signalling: IEEE_UNDERFLOW_FLAG IEEE_DENORMAL
Note: The following floating-point exceptions are signalling: IEEE_UNDERFLOW_FLAG IEEE_DENORMAL
Note: The following floating-point exceptions are signalling: IEEE_UNDERFLOW_FLAG IEEE_DENORMAL
Note: The following floating-point exceptions are signalling: IEEE_UNDERFLOW_FLAG IEEE_DENORMAL
Note: The following floating-point exceptions are signalling: IEEE_UNDERFLOW_FLAG IEEE_DENORMAL
