
     Program PWSCF v.7.5 starts on 18Jun2026 at 14:43:25 

     This program is part of the open-source Quantum ESPRESSO suite
     for quantum simulation of materials; please cite
         "P. Giannozzi et al., J. Phys.:Condens. Matter 21 395502 (2009);
         "P. Giannozzi et al., J. Phys.:Condens. Matter 29 465901 (2017);
         "P. Giannozzi et al., J. Chem. Phys. 152 154105 (2020);
          URL http://www.quantum-espresso.org", 
     in publications or presentations arising from this work. More details at
     http://www.quantum-espresso.org/quote

     Parallel version (MPI), running on    12 processors

     MPI processes distributed on     1 nodes
     32540 MiB available memory on the printing compute node when the environment starts

     Waiting for input...
     Reading input from standard input

     Current dimensions of program PWSCF are:
     Max number of different atomic species (ntypx) = 10
     Max number of k-points (npk) =  40000
     Max angular momentum in pseudopotentials (lmaxx) =  4
     file W.pbe-spn-kjpaw_psl.1.0.0.UPF: wavefunction(s)  6S 5P 5D renormalized
     file Se.pbe-dn-kjpaw_psl.1.0.0.UPF: wavefunction(s)  4S 4P 3D renormalized

     IMPORTANT: XC functional enforced from input :
     Exchange-correlation= VDW-DF2-B86R
                           (   1   4  26   0   2   0   0)
     Any further DFT definition will be discarded
     Please, verify this is what you really want


     R & G space division:  proc/nbgrp/npool/nimage =      12
     Subspace diagonalization in iterative solution of the eigenvalue problem:
     a serial algorithm will be used


     Parallelization info
     --------------------
     sticks:   dense  smooth     PW     G-vecs:    dense   smooth      PW
     Min         139      70     20                71489    25322    3895
     Max         140      71     22                71558    25395    3945
     Sum        1675     847    253               858263   304337   46813

     Using Slab Decomposition



     bravais-lattice index     =            4
     lattice parameter (alat)  =       6.1983  a.u.
     unit-cell volume          =    3143.7277 (a.u.)^3
     number of atoms/cell      =            6
     number of atomic types    =            2
     number of electrons       =        92.00
     number of Kohn-Sham states=           55
     kinetic-energy cutoff     =      80.0000  Ry
     charge density cutoff     =     640.0000  Ry
     scf convergence threshold =      1.0E-07
     mixing beta               =       0.1000
     number of iterations used =           12  local-TF  mixing
     Exchange-correlation= VDW-DF2-B86R
                           (   1   4  26   0   2   0   0)

     celldm(1)=   6.198302  celldm(2)=   0.000000  celldm(3)=  15.243902
     celldm(4)=   0.000000  celldm(5)=   0.000000  celldm(6)=   0.000000

     crystal axes: (cart. coord. in units of alat)
               a(1) = (   1.000000   0.000000   0.000000 )  
               a(2) = (  -0.500000   0.866025   0.000000 )  
               a(3) = (   0.000000   0.000000  15.243902 )  

     reciprocal axes: (cart. coord. in units 2 pi/alat)
               b(1) = (  1.000000  0.577350 -0.000000 )  
               b(2) = (  0.000000  1.154701  0.000000 )  
               b(3) = (  0.000000 -0.000000  0.065600 )  


     PseudoPot. # 1 for W  read from file:
     ./pseudo/W.pbe-spn-kjpaw_psl.1.0.0.UPF
     MD5 check sum: 03c3df5b60893f488392c7401945500a
     Pseudo is Projector augmented-wave + core cor, Zval = 14.0
     Generated using &quot;atomic&quot; code by A. Dal Corso  v.6.2.2
     Shape of augmentation charge: PSQ
     Using radial grid of 1273 points,  6 beta functions with: 
                l(1) =   0
                l(2) =   0
                l(3) =   1
                l(4) =   1
                l(5) =   2
                l(6) =   2
     Q(r) pseudized with 0 coefficients 


     PseudoPot. # 2 for Se read from file:
     ./pseudo/Se.pbe-dn-kjpaw_psl.1.0.0.UPF
     MD5 check sum: ac240dd2bae32a30e0bf3a38df9c8785
     Pseudo is Projector augmented-wave + core cor, Zval = 16.0
     Generated using &quot;atomic&quot; code by A. Dal Corso  v.6.3
     Shape of augmentation charge: PSQ
     Using radial grid of 1211 points,  6 beta functions with: 
                l(1) =   0
                l(2) =   0
                l(3) =   1
                l(4) =   1
                l(5) =   2
                l(6) =   2
     Q(r) pseudized with 0 coefficients 


     atomic species   valence    mass     pseudopotential
     W                14.00   183.84000     W ( 1.00)
     Se               16.00    78.96000     Se( 1.00)

      6 Sym. Ops. (no inversion) found



   Cartesian axes

     site n.     atom                  positions (alat units)
         1        Se     tau(   1) = (  -0.0000005   0.5773506   6.1149390  )
         2        W      tau(   2) = (   0.0000000   0.0000000   6.6383232  )
         3        Se     tau(   3) = (   0.5000005   0.2886748   7.1618445  )
         4        Se     tau(   4) = (  -0.0000005   0.5773506   8.6913872  )
         5        W      tau(   5) = (   0.5000005   0.2886748   9.2146341  )
         6        Se     tau(   6) = (   0.0000000   0.0000000   9.7387195  )

     number of k points=    30  Methfessel-Paxton smearing, width (Ry)=  0.0200
                       cart. coord. in units 2pi/alat
        k(    1) = (   0.0000000   0.0000000   0.0000000), wk =   0.0078125
        k(    2) = (   0.0000000   0.0721688   0.0000000), wk =   0.0468750
        k(    3) = (   0.0000000   0.1443376   0.0000000), wk =   0.0468750
        k(    4) = (   0.0000000   0.2165064   0.0000000), wk =   0.0468750
        k(    5) = (   0.0000000   0.2886751   0.0000000), wk =   0.0468750
        k(    6) = (   0.0000000   0.3608439   0.0000000), wk =   0.0468750
        k(    7) = (   0.0000000   0.4330127   0.0000000), wk =   0.0468750
        k(    8) = (   0.0000000   0.5051815   0.0000000), wk =   0.0468750
        k(    9) = (   0.0000000  -0.5773503   0.0000000), wk =   0.0234375
        k(   10) = (   0.0625000   0.1082532   0.0000000), wk =   0.0468750
        k(   11) = (   0.0625000   0.1804220   0.0000000), wk =   0.0937500
        k(   12) = (   0.0625000   0.2525907   0.0000000), wk =   0.0937500
        k(   13) = (   0.0625000   0.3247595   0.0000000), wk =   0.0937500
        k(   14) = (   0.0625000   0.3969283   0.0000000), wk =   0.0937500
        k(   15) = (   0.0625000   0.4690971   0.0000000), wk =   0.0937500
        k(   16) = (   0.0625000   0.5412659   0.0000000), wk =   0.0937500
        k(   17) = (   0.1250000   0.2165064   0.0000000), wk =   0.0468750
        k(   18) = (   0.1250000   0.2886751   0.0000000), wk =   0.0937500
        k(   19) = (   0.1250000   0.3608439   0.0000000), wk =   0.0937500
        k(   20) = (   0.1250000   0.4330127   0.0000000), wk =   0.0937500
        k(   21) = (   0.1250000   0.5051815   0.0000000), wk =   0.0937500
        k(   22) = (   0.1250000   0.5773503   0.0000000), wk =   0.0468750
        k(   23) = (   0.1875000   0.3247595   0.0000000), wk =   0.0468750
        k(   24) = (   0.1875000   0.3969283   0.0000000), wk =   0.0937500
        k(   25) = (   0.1875000   0.4690971   0.0000000), wk =   0.0937500
        k(   26) = (   0.1875000   0.5412659   0.0000000), wk =   0.0937500
        k(   27) = (   0.2500000   0.4330127   0.0000000), wk =   0.0468750
        k(   28) = (   0.2500000   0.5051815   0.0000000), wk =   0.0937500
        k(   29) = (   0.2500000   0.5773503   0.0000000), wk =   0.0468750
        k(   30) = (   0.3125000   0.5412659   0.0000000), wk =   0.0468750

     Dense  grid:   858263 G-vectors     FFT dimensions: (  50,  50, 768)

     Smooth grid:   304337 G-vectors     FFT dimensions: (  36,  36, 540)

     Estimated max dynamical RAM per process >     350.14 MB

     Estimated total dynamical RAM >       4.10 GB

     Initial potential from superposition of free atoms

     starting charge      91.9986, renormalised to      92.0000

     negative rho (up, down):  1.669E-04 0.000E+00


     %%%%%%%%%%%%%%%%%%%%%%%%%%%%%%%%%%%%%%%%%%%%%%%%%%%%%%%%%%%%%%%%%%%%%%%%
     %                                                                      %
     % You are using vdW-DF, which was implemented by the Thonhauser group. %
     % Please cite the following two papers that made this development      %
     % possible and the two reviews that describe the various versions:     %
     %                                                                      %
     %   T. Thonhauser et al., PRL 115, 136402 (2015).                      %
     %   T. Thonhauser et al., PRB 76, 125112 (2007).                       %
     %   K. Berland et al., Rep. Prog. Phys. 78, 066501 (2015).             %
     %   D.C. Langreth et al., J. Phys.: Condens. Matter 21, 084203 (2009). %
     %                                                                      %
     % If you are calculating stress with vdW-DF, please also cite:         %
     %                                                                      %
     %   R. Sabatini et al., J. Phys.: Condens. Matter 24, 424209 (2012).   %
     %                                                                      %
     %%%%%%%%%%%%%%%%%%%%%%%%%%%%%%%%%%%%%%%%%%%%%%%%%%%%%%%%%%%%%%%%%%%%%%%%

     %%%%%%%%%%%%%%%%%%%%%%%%%%%%%%%%%%%%%%%%%%%%%%%%%%%%%%%%%%%%%%%%%%%%%%%%
     %                                                                      %
     %  vdW-DF NEWS:                                                        %
     %                                                                      %
     %  * vdW-DF3 is now available. DOI: 10.1021/acs.jctc.0c00471           %
     %    use with input_dft = 'vdW-DF3-opt1' or 'vdW-DF3-opt2'             %
     %                                                                      %
     %  * Unscreened and range-separated hybrid vdW-DF-cx functionals       %
     %    DOI: 10.1063/1.4986522 and 10.1088/1361-648X/ac2ad2               %
     %    use with input_dft = 'vdW-DF-cx0'    and 'vdW-DF-ahcx'            %
     %  * Unscreened and range-separated hybrid vdW-DF2-b86r functionals    %
     %    DOI: 10.1063/1.4986522 and DOI: 10.1103/PhysRevX.12.041003        %
     %    use with input_dft = 'vdW-DF2-br0' and 'vdW-DF2-ahbr'             %
     %                                                                      %
     %%%%%%%%%%%%%%%%%%%%%%%%%%%%%%%%%%%%%%%%%%%%%%%%%%%%%%%%%%%%%%%%%%%%%%%%


     Starting wfcs are   62 randomized atomic wfcs
     Checking if some PAW data can be deallocated... 

     total cpu time spent up to now is       29.2 secs

     per-process dynamical memory:   142.9 Mb

     Self-consistent Calculation

     iteration #  1     ecut=    80.00 Ry     beta= 0.10
     Davidson diagonalization with overlap
     ethr =  1.00E-02,  avg # of iterations =  3.9

     Threshold (ethr) on eigenvalues was too large:
     Diagonalizing with lowered threshold

     Davidson diagonalization with overlap
     ethr =  1.08E-04,  avg # of iterations =  5.3

     negative rho (up, down):  1.121E-04 0.000E+00

     total cpu time spent up to now is      128.9 secs

     total energy              =   -3113.99667033 Ry
     estimated scf accuracy    <       0.12760320 Ry

     iteration #  2     ecut=    80.00 Ry     beta= 0.10
     Davidson diagonalization with overlap
     ethr =  1.39E-04,  avg # of iterations =  1.0

     negative rho (up, down):  2.626E-04 0.000E+00

     total cpu time spent up to now is      165.7 secs

     total energy              =   -3113.95135222 Ry
     estimated scf accuracy    <       0.11625469 Ry

     iteration #  3     ecut=    80.00 Ry     beta= 0.10
     Davidson diagonalization with overlap
     ethr =  1.26E-04,  avg # of iterations =  3.4

     negative rho (up, down):  6.103E-05 0.000E+00

     total cpu time spent up to now is      216.5 secs

     total energy              =   -3113.96652291 Ry
     estimated scf accuracy    <       0.02163252 Ry

     iteration #  4     ecut=    80.00 Ry     beta= 0.10
     Davidson diagonalization with overlap
     ethr =  2.35E-05,  avg # of iterations =  3.3

     negative rho (up, down):  1.983E-07 0.000E+00

     total cpu time spent up to now is      263.6 secs

     total energy              =   -3113.96263760 Ry
     estimated scf accuracy    <       0.01919490 Ry

     iteration #  5     ecut=    80.00 Ry     beta= 0.10
     Davidson diagonalization with overlap
     ethr =  2.09E-05,  avg # of iterations =  3.5

     negative rho (up, down):  1.403E-07 0.000E+00

     total cpu time spent up to now is      315.0 secs

     total energy              =   -3113.96426914 Ry
     estimated scf accuracy    <       0.00262552 Ry

     iteration #  6     ecut=    80.00 Ry     beta= 0.10
     Davidson diagonalization with overlap
     c_bands:  1 eigenvalues not converged
     ethr =  2.85E-06,  avg # of iterations =  9.3

     negative rho (up, down):  7.399E-08 0.000E+00

     total cpu time spent up to now is      366.2 secs

     total energy              =   -3113.96359362 Ry
     estimated scf accuracy    <       0.00242441 Ry

     iteration #  7     ecut=    80.00 Ry     beta= 0.10
     Davidson diagonalization with overlap
     ethr =  2.64E-06,  avg # of iterations =  2.6

     negative rho (up, down):  1.297E-07 0.000E+00

     total cpu time spent up to now is      416.9 secs

     total energy              =   -3113.96334468 Ry
     estimated scf accuracy    <       0.00279585 Ry

     iteration #  8     ecut=    80.00 Ry     beta= 0.10
     Davidson diagonalization with overlap
     ethr =  2.64E-06,  avg # of iterations =  4.0

     negative rho (up, down):  1.596E-08 0.000E+00

     total cpu time spent up to now is      464.1 secs

     total energy              =   -3113.96345177 Ry
     estimated scf accuracy    <       0.00086702 Ry

     iteration #  9     ecut=    80.00 Ry     beta= 0.10
     Davidson diagonalization with overlap
     ethr =  9.42E-07,  avg # of iterations =  2.9

     negative rho (up, down):  3.815E-08 0.000E+00

     total cpu time spent up to now is      508.2 secs

     total energy              =   -3113.96333716 Ry
     estimated scf accuracy    <       0.00075782 Ry

     iteration # 10     ecut=    80.00 Ry     beta= 0.10
     Davidson diagonalization with overlap
     ethr =  8.24E-07,  avg # of iterations =  4.0

     negative rho (up, down):  2.567E-08 0.000E+00

     total cpu time spent up to now is      554.8 secs

     total energy              =   -3113.96335564 Ry
     estimated scf accuracy    <       0.00070225 Ry

     iteration # 11     ecut=    80.00 Ry     beta= 0.10
     Davidson diagonalization with overlap
     ethr =  7.63E-07,  avg # of iterations =  5.0

     negative rho (up, down):  6.955E-04 0.000E+00

     total cpu time spent up to now is      598.6 secs

     total energy              =   -3113.96330505 Ry
     estimated scf accuracy    <       0.00047778 Ry

     iteration # 12     ecut=    80.00 Ry     beta= 0.10
     Davidson diagonalization with overlap
     ethr =  5.19E-07,  avg # of iterations =  4.6

     negative rho (up, down):  4.623E-03 0.000E+00

     total cpu time spent up to now is      644.4 secs

     total energy              =   -3113.96325740 Ry
     estimated scf accuracy    <       0.00040120 Ry

     iteration # 13     ecut=    80.00 Ry     beta= 0.10
     Davidson diagonalization with overlap
     ethr =  4.36E-07,  avg # of iterations =  5.7

     negative rho (up, down):  4.376E-03 0.000E+00

     total cpu time spent up to now is      693.5 secs

     total energy              =   -3113.96327807 Ry
     estimated scf accuracy    <       0.00023004 Ry

     iteration # 14     ecut=    80.00 Ry     beta= 0.10
     Davidson diagonalization with overlap
     ethr =  2.50E-07,  avg # of iterations =  1.0

     negative rho (up, down):  1.047E-03 0.000E+00

     total cpu time spent up to now is      734.5 secs

     total energy              =   -3113.96328739 Ry
     estimated scf accuracy    <       0.00022410 Ry

     iteration # 15     ecut=    80.00 Ry     beta= 0.10
     Davidson diagonalization with overlap
     ethr =  2.44E-07,  avg # of iterations =  4.1

     negative rho (up, down):  1.626E-03 0.000E+00

     total cpu time spent up to now is      786.5 secs

     total energy              =   -3113.96330387 Ry
     estimated scf accuracy    <       0.00015780 Ry

     iteration # 16     ecut=    80.00 Ry     beta= 0.10
     Davidson diagonalization with overlap
     ethr =  1.72E-07,  avg # of iterations =  2.1

     negative rho (up, down):  1.516E-03 0.000E+00

     total cpu time spent up to now is      828.9 secs

     total energy              =   -3113.96326859 Ry
     estimated scf accuracy    <       0.00014857 Ry

     iteration # 17     ecut=    80.00 Ry     beta= 0.10
     Davidson diagonalization with overlap
     ethr =  1.61E-07,  avg # of iterations =  2.2

     negative rho (up, down):  3.061E-03 0.000E+00

     total cpu time spent up to now is      877.9 secs

     total energy              =   -3113.96326186 Ry
     estimated scf accuracy    <       0.00012146 Ry

     iteration # 18     ecut=    80.00 Ry     beta= 0.10
     Davidson diagonalization with overlap
     ethr =  1.32E-07,  avg # of iterations =  5.8

     negative rho (up, down):  3.115E-03 0.000E+00

     total cpu time spent up to now is      924.8 secs

     total energy              =   -3113.96326787 Ry
     estimated scf accuracy    <       0.00014874 Ry

     iteration # 19     ecut=    80.00 Ry     beta= 0.10
     Davidson diagonalization with overlap
     ethr =  1.32E-07,  avg # of iterations =  1.5

     negative rho (up, down):  3.499E-03 0.000E+00

     total cpu time spent up to now is      968.0 secs

     total energy              =   -3113.96324133 Ry
     estimated scf accuracy    <       0.00011665 Ry

     iteration # 20     ecut=    80.00 Ry     beta= 0.10
     Davidson diagonalization with overlap
     ethr =  1.27E-07,  avg # of iterations =  4.4

     negative rho (up, down):  4.859E-03 0.000E+00

     total cpu time spent up to now is     1015.6 secs

     total energy              =   -3113.96316522 Ry
     estimated scf accuracy    <       0.00017236 Ry

     iteration # 21     ecut=    80.00 Ry     beta= 0.10
     Davidson diagonalization with overlap
     ethr =  1.27E-07,  avg # of iterations =  6.4

     negative rho (up, down):  3.821E-03 0.000E+00

     total cpu time spent up to now is     1066.6 secs

     total energy              =   -3113.96318663 Ry
     estimated scf accuracy    <       0.00003788 Ry

     iteration # 22     ecut=    80.00 Ry     beta= 0.10
     Davidson diagonalization with overlap
     ethr =  4.12E-08,  avg # of iterations =  4.1

     negative rho (up, down):  2.326E-03 0.000E+00

     total cpu time spent up to now is     1111.5 secs

     total energy              =   -3113.96322187 Ry
     estimated scf accuracy    <       0.00003933 Ry

     iteration # 23     ecut=    80.00 Ry     beta= 0.10
     Davidson diagonalization with overlap
     ethr =  4.12E-08,  avg # of iterations =  5.5

     negative rho (up, down):  2.329E-03 0.000E+00

     total cpu time spent up to now is     1167.7 secs

     total energy              =   -3113.96322841 Ry
     estimated scf accuracy    <       0.00001792 Ry

     iteration # 24     ecut=    80.00 Ry     beta= 0.10
     Davidson diagonalization with overlap
     ethr =  1.95E-08,  avg # of iterations =  1.0

     negative rho (up, down):  2.169E-03 0.000E+00

     total cpu time spent up to now is     1207.5 secs

     total energy              =   -3113.96323873 Ry
     estimated scf accuracy    <       0.00001369 Ry

     iteration # 25     ecut=    80.00 Ry     beta= 0.10
     Davidson diagonalization with overlap
     ethr =  1.49E-08,  avg # of iterations =  3.9

     negative rho (up, down):  1.306E-03 0.000E+00

     total cpu time spent up to now is     1251.0 secs

     total energy              =   -3113.96323037 Ry
     estimated scf accuracy    <       0.00001051 Ry

     iteration # 26     ecut=    80.00 Ry     beta= 0.10
     Davidson diagonalization with overlap
     ethr =  1.14E-08,  avg # of iterations =  5.7

     negative rho (up, down):  1.101E-03 0.000E+00

     total cpu time spent up to now is     1300.2 secs

     total energy              =   -3113.96323722 Ry
     estimated scf accuracy    <       0.00000388 Ry

     iteration # 27     ecut=    80.00 Ry     beta= 0.10
     Davidson diagonalization with overlap
     ethr =  4.22E-09,  avg # of iterations =  2.2

     negative rho (up, down):  5.764E-04 0.000E+00

     total cpu time spent up to now is     1351.8 secs

     total energy              =   -3113.96323898 Ry
     estimated scf accuracy    <       0.00000312 Ry

     iteration # 28     ecut=    80.00 Ry     beta= 0.10
     Davidson diagonalization with overlap
     ethr =  3.39E-09,  avg # of iterations =  3.6

     negative rho (up, down):  3.033E-04 0.000E+00

     total cpu time spent up to now is     1402.9 secs

     total energy              =   -3113.96324159 Ry
     estimated scf accuracy    <       0.00000099 Ry

     iteration # 29     ecut=    80.00 Ry     beta= 0.10
     Davidson diagonalization with overlap
     ethr =  1.07E-09,  avg # of iterations =  2.6

     negative rho (up, down):  2.516E-04 0.000E+00

     total cpu time spent up to now is     1454.2 secs

     total energy              =   -3113.96324198 Ry
     estimated scf accuracy    <       0.00000012 Ry

     iteration # 30     ecut=    80.00 Ry     beta= 0.10
     Davidson diagonalization with overlap
     ethr =  1.32E-10,  avg # of iterations =  2.1

     negative rho (up, down):  1.652E-04 0.000E+00

     total cpu time spent up to now is     1501.7 secs

     End of self-consistent calculation

          k = 0.0000 0.0000 0.0000 ( 38015 PWs)   bands (ev):

   -74.8864 -74.8859 -48.1534 -48.1534 -48.1520 -48.1520 -48.1512 -48.1512
   -48.1494 -48.1494 -48.1230 -48.1230 -48.1216 -48.1216 -48.1204 -48.1204
   -48.1187 -48.1187 -48.1090 -48.1076 -48.1062 -48.1046 -39.0794 -39.0788
   -39.0443 -39.0443 -39.0434 -39.0434 -15.5159 -15.5118 -14.4462 -14.4411
    -6.9963  -6.9580  -3.4224  -3.3570  -3.3570  -3.3522  -3.3522  -3.2541
    -1.3928  -1.2571  -0.6932  -0.6931  -0.6909  -0.6909   0.2041   0.2041
     0.2066   0.2066   3.2686   3.4062   3.4062   3.4090   3.4090

          k = 0.0000 0.0722 0.0000 ( 37975 PWs)   bands (ev):

   -74.8860 -74.8855 -48.1534 -48.1532 -48.1520 -48.1518 -48.1512 -48.1510
   -48.1494 -48.1492 -48.1231 -48.1230 -48.1217 -48.1216 -48.1204 -48.1204
   -48.1187 -48.1187 -48.1089 -48.1075 -48.1061 -48.1045 -39.0776 -39.0770
   -39.0534 -39.0525 -39.0465 -39.0455 -15.4548 -15.4507 -14.4181 -14.4130
    -6.9139  -6.8756  -3.8775  -3.8140  -3.3223  -3.3175  -2.9759  -2.8749
    -1.4481  -1.3532  -0.9899  -0.9643  -0.9220  -0.9195   0.1773   0.2086
     0.4053   0.4075   3.0425   3.0820   3.3642   3.3676   3.4385

          k = 0.0000 0.1443 0.0000 ( 37895 PWs)   bands (ev):

   -74.8849 -74.8844 -48.1534 -48.1527 -48.1520 -48.1513 -48.1512 -48.1505
   -48.1494 -48.1487 -48.1233 -48.1231 -48.1219 -48.1217 -48.1206 -48.1204
   -48.1189 -48.1187 -48.1087 -48.1073 -48.1058 -48.1042 -39.0793 -39.0783
   -39.0723 -39.0717 -39.0525 -39.0515 -15.2758 -15.2717 -14.3360 -14.3312
    -6.6741  -6.6358  -4.3731  -4.3255  -3.2392  -3.2345  -2.7495  -2.6585
    -2.0484  -2.0306  -1.3055  -1.3027  -1.2382  -1.1491   0.1577   0.2306
     0.7090   0.7111   2.4425   2.5452   3.2872   3.2916   3.7774

          k = 0.0000 0.2165 0.0000 ( 37851 PWs)   bands (ev):

   -74.8832 -74.8827 -48.1533 -48.1520 -48.1519 -48.1512 -48.1505 -48.1497
   -48.1494 -48.1479 -48.1236 -48.1232 -48.1222 -48.1218 -48.1209 -48.1205
   -48.1192 -48.1188 -48.1083 -48.1069 -48.1055 -48.1038 -39.1175 -39.1166
   -39.0646 -39.0641 -39.0615 -39.0606 -14.9924 -14.9884 -14.2063 -14.2019
    -6.3061  -6.2685  -4.8188  -4.7833  -3.3029  -3.2950  -3.1761  -3.1715
    -2.4902  -2.4088  -1.5981  -1.5950  -1.3612  -1.3043   0.1803   0.2816
     0.9115   0.9137   2.0954   2.2737   3.2601   3.2655   4.1743

          k = 0.0000 0.2887 0.0000 ( 37919 PWs)   bands (ev):

   -74.8812 -74.8807 -48.1534 -48.1520 -48.1512 -48.1510 -48.1496 -48.1494
   -48.1489 -48.1471 -48.1239 -48.1233 -48.1225 -48.1219 -48.1212 -48.1206
   -48.1195 -48.1189 -48.1078 -48.1065 -48.1050 -48.1034 -39.1625 -39.1615
   -39.0721 -39.0712 -39.0555 -39.0549 -14.6314 -14.6276 -14.0379 -14.0339
    -5.9124  -5.8802  -5.1312  -5.1031  -4.3595  -4.3539  -3.2216  -3.2172
    -2.6504  -2.5900  -1.6958  -1.6925  -1.6520  -1.6221   0.3310   0.4426
     1.0160   1.0183   2.2000   2.4489   3.3046   3.3114   4.6312

          k = 0.0000 0.3608 0.0000 ( 37933 PWs)   bands (ev):

   -74.8792 -74.8786 -48.1534 -48.1520 -48.1512 -48.1502 -48.1494 -48.1488
   -48.1480 -48.1462 -48.1243 -48.1234 -48.1229 -48.1220 -48.1215 -48.1207
   -48.1198 -48.1190 -48.1074 -48.1060 -48.1046 -48.1030 -39.2070 -39.2060
   -39.0827 -39.0818 -39.0464 -39.0458 -14.2467 -14.2431 -13.8325 -13.8290
    -5.9128  -5.9015  -5.3401  -5.3270  -4.9311  -4.9010  -3.3706  -3.3665
    -2.9842  -2.9479  -1.9537  -1.9292  -1.6352  -1.6318   0.6753   0.7758
     1.1092   1.1113   2.6221   2.9088   3.3777   3.3860   4.9981

          k = 0.0000 0.4330 0.0000 ( 37998 PWs)   bands (ev):

   -74.8775 -74.8769 -48.1535 -48.1521 -48.1512 -48.1494 -48.1494 -48.1480
   -48.1473 -48.1454 -48.1246 -48.1236 -48.1232 -48.1222 -48.1217 -48.1208
   -48.1201 -48.1191 -48.1070 -48.1056 -48.1042 -48.1026 -39.2445 -39.2435
   -39.0917 -39.0907 -39.0386 -39.0380 -13.9420 -13.9387 -13.5693 -13.5661
    -6.5233  -6.5196  -5.6109  -5.5950  -4.7032  -4.6834  -3.5352  -3.5311
    -3.2747  -3.2433  -2.1381  -2.1190  -1.5398  -1.5362   1.1526   1.2300
     1.2482   1.2500   3.1398   3.3786   3.4389   3.4486   4.5295

          k = 0.0000 0.5052 0.0000 ( 38048 PWs)   bands (ev):

   -74.8763 -74.8758 -48.1535 -48.1521 -48.1512 -48.1494 -48.1489 -48.1475
   -48.1468 -48.1450 -48.1249 -48.1236 -48.1235 -48.1222 -48.1219 -48.1208
   -48.1202 -48.1191 -48.1068 -48.1054 -48.1040 -48.1024 -39.2694 -39.2684
   -39.0977 -39.0967 -39.0334 -39.0329 -13.7803 -13.7771 -13.3007 -13.2980
    -7.0873  -7.0837  -5.6261  -5.6152  -4.7739  -4.7634  -3.6519  -3.6479
    -3.2069  -3.1767  -2.2527  -2.2403  -1.4785  -1.4747   1.3976   1.3994
     1.6392   1.6876   3.3984   3.4748   3.4855   3.4871   4.3806

          k = 0.0000-0.5774 0.0000 ( 38024 PWs)   bands (ev):

   -74.8759 -74.8754 -48.1535 -48.1521 -48.1512 -48.1494 -48.1488 -48.1474
   -48.1466 -48.1448 -48.1249 -48.1236 -48.1235 -48.1223 -48.1220 -48.1208
   -48.1203 -48.1191 -48.1067 -48.1053 -48.1039 -48.1023 -39.2781 -39.2771
   -39.0998 -39.0988 -39.0316 -39.0310 -13.7305 -13.7273 -13.1861 -13.1837
    -7.3001  -7.2965  -5.5879  -5.5829  -4.8961  -4.8853  -3.6933  -3.6893
    -3.0877  -3.0640  -2.3044  -2.2945  -1.4595  -1.4557   1.4642   1.4661
     1.8758   1.8976   3.4287   3.4862   3.4973   3.4993   4.1362

          k = 0.0625 0.1083 0.0000 ( 37895 PWs)   bands (ev):

   -74.8853 -74.8847 -48.1533 -48.1529 -48.1519 -48.1515 -48.1512 -48.1507
   -48.1494 -48.1489 -48.1232 -48.1231 -48.1218 -48.1217 -48.1206 -48.1204
   -48.1188 -48.1187 -48.1087 -48.1073 -48.1059 -48.1043 -39.0741 -39.0735
   -39.0705 -39.0696 -39.0508 -39.0498 -15.3347 -15.3306 -14.3630 -14.3581
    -6.7524  -6.7141  -4.2408  -4.1891  -3.2711  -3.2664  -2.7761  -2.6752
    -1.7887  -1.7719  -1.3173  -1.3100  -1.1465  -1.0589   0.2332   0.2923
     0.5577   0.5595   2.6714   2.7534   3.2238   3.2300   3.6870

          k = 0.0625 0.1804 0.0000 ( 37885 PWs)   bands (ev):

   -74.8838 -74.8833 -48.1533 -48.1522 -48.1519 -48.1512 -48.1508 -48.1501
   -48.1494 -48.1482 -48.1235 -48.1231 -48.1221 -48.1218 -48.1208 -48.1205
   -48.1191 -48.1188 -48.1084 -48.1070 -48.1056 -48.1040 -39.1019 -39.1009
   -39.0678 -39.0672 -39.0589 -39.0580 -15.1031 -15.0990 -14.2572 -14.2527
    -6.4444  -6.4063  -4.6658  -4.6263  -3.2625  -3.2580  -2.8273  -2.7855
    -2.4878  -2.4486  -1.6657  -1.6469  -1.1777  -1.0980   0.2852   0.3593
     0.6573   0.6741   2.3606   2.4973   3.0761   3.0834   4.0322

          k = 0.0625 0.2526 0.0000 ( 37916 PWs)   bands (ev):

   -74.8820 -74.8815 -48.1533 -48.1519 -48.1514 -48.1512 -48.1500 -48.1493
   -48.1493 -48.1475 -48.1238 -48.1233 -48.1224 -48.1219 -48.1211 -48.1206
   -48.1194 -48.1189 -48.1080 -48.1066 -48.1052 -48.1036 -39.1426 -39.1416
   -39.0700 -39.0690 -39.0590 -39.0585 -14.7790 -14.7751 -14.1091 -14.1049
    -6.0376  -6.0015  -5.0340  -5.0038  -3.9034  -3.8997  -3.2034  -3.1951
    -2.6240  -2.5758  -1.9251  -1.9078  -1.2321  -1.1848   0.2377   0.3170
     0.8515   0.8940   2.2726   2.4475   3.0765   3.1081   4.4522

          k = 0.0625 0.3248 0.0000 ( 37964 PWs)   bands (ev):

   -74.8800 -74.8795 -48.1533 -48.1519 -48.1511 -48.1506 -48.1493 -48.1492
   -48.1484 -48.1466 -48.1242 -48.1234 -48.1228 -48.1220 -48.1214 -48.1207
   -48.1197 -48.1190 -48.1076 -48.1062 -48.1048 -48.1031 -39.1862 -39.1852
   -39.0815 -39.0806 -39.0500 -39.0494 -14.3994 -14.3956 -13.9266 -13.9228
    -5.7594  -5.7364  -5.2002  -5.1770  -4.8317  -4.8183  -3.4361  -3.4281
    -2.7299  -2.6957  -2.2486  -2.2429  -1.2792  -1.2521   0.3504   0.4299
     1.1082   1.1461   2.4248   2.6086   3.1939   3.2769   4.9303

          k = 0.0625 0.3969 0.0000 ( 37981 PWs)   bands (ev):

   -74.8781 -74.8776 -48.1533 -48.1519 -48.1511 -48.1498 -48.1493 -48.1484
   -48.1476 -48.1458 -48.1245 -48.1235 -48.1231 -48.1221 -48.1216 -48.1208
   -48.1199 -48.1191 -48.1072 -48.1058 -48.1044 -48.1027 -39.2263 -39.2253
   -39.0923 -39.0913 -39.0416 -39.0410 -14.0416 -14.0382 -13.7000 -13.6967
    -6.1364  -6.1325  -5.5198  -5.5038  -4.7825  -4.7543  -3.6855  -3.6765
    -2.9892  -2.9693  -2.4786  -2.4705  -1.2674  -1.2517   0.6527   0.7133
     1.3809   1.4113   2.7323   2.8571   3.3811   3.5339   4.9315

          k = 0.0625 0.4691 0.0000 ( 38057 PWs)   bands (ev):

   -74.8767 -74.8762 -48.1534 -48.1520 -48.1511 -48.1493 -48.1492 -48.1478
   -48.1471 -48.1452 -48.1248 -48.1236 -48.1234 -48.1222 -48.1218 -48.1208
   -48.1201 -48.1191 -48.1069 -48.1055 -48.1041 -48.1024 -39.2567 -39.2557
   -39.1005 -39.0995 -39.0351 -39.0345 -13.8137 -13.8105 -13.4199 -13.4170
    -6.7888  -6.7851  -5.6222  -5.6090  -4.6602  -4.6472  -3.7999  -3.7903
    -3.1575  -3.1368  -2.5749  -2.5675  -1.2685  -1.2604   1.0425   1.0773
     1.6544   1.6811   2.9940   3.0449   3.5625   3.6617   4.5725

          k = 0.0625 0.5413 0.0000 ( 38034 PWs)   bands (ev):

   -74.8759 -74.8754 -48.1534 -48.1520 -48.1510 -48.1492 -48.1489 -48.1475
   -48.1467 -48.1449 -48.1249 -48.1237 -48.1235 -48.1223 -48.1219 -48.1209
   -48.1202 -48.1192 -48.1067 -48.1053 -48.1039 -48.1023 -39.2731 -39.2721
   -39.1049 -39.1039 -39.0316 -39.0310 -13.7141 -13.7109 -13.2131 -13.2107
    -7.1880  -7.1844  -5.5936  -5.5866  -4.8168  -4.8063  -3.8070  -3.8022
    -3.0802  -3.0598  -2.6238  -2.6194  -1.2938  -1.2888   1.3611   1.3717
     1.8291   1.8497   3.1669   3.1860   3.4862   3.5628   4.4290

          k = 0.1250 0.2165 0.0000 ( 37933 PWs)   bands (ev):

   -74.8823 -74.8817 -48.1532 -48.1518 -48.1516 -48.1511 -48.1502 -48.1495
   -48.1493 -48.1477 -48.1237 -48.1233 -48.1223 -48.1219 -48.1210 -48.1206
   -48.1193 -48.1189 -48.1081 -48.1067 -48.1053 -48.1036 -39.1343 -39.1333
   -39.0707 -39.0697 -39.0601 -39.0596 -14.8295 -14.8256 -14.1336 -14.1293
    -6.0828  -6.0455  -4.9866  -4.9553  -3.7371  -3.7337  -2.9983  -2.9583
    -2.8996  -2.8960  -1.9313  -1.8947  -1.0732  -1.0026   0.2632   0.2911
     0.6603   0.7507   2.5998   2.6902   2.6947   2.7930   4.3942

          k = 0.1250 0.2887 0.0000 ( 37936 PWs)   bands (ev):

   -74.8804 -74.8799 -48.1532 -48.1518 -48.1510 -48.1509 -48.1495 -48.1492
   -48.1488 -48.1469 -48.1241 -48.1234 -48.1227 -48.1220 -48.1212 -48.1207
   -48.1195 -48.1190 -48.1077 -48.1063 -48.1049 -48.1032 -39.1716 -39.1706
   -39.0844 -39.0835 -39.0519 -39.0513 -14.4803 -14.4766 -13.9751 -13.9713
    -5.6651  -5.6330  -5.2406  -5.2156  -4.5463  -4.5413  -3.4471  -3.4304
    -2.9781  -2.9710  -2.2082  -2.1859  -0.9526  -0.9002   0.0685   0.1231
     1.0471   1.1253   2.3789   2.4117   2.9594   3.1653   4.8429

          k = 0.1250 0.3608 0.0000 ( 38000 PWs)   bands (ev):

   -74.8786 -74.8780 -48.1531 -48.1517 -48.1509 -48.1502 -48.1491 -48.1488
   -48.1481 -48.1462 -48.1244 -48.1235 -48.1230 -48.1221 -48.1215 -48.1209
   -48.1198 -48.1191 -48.1073 -48.1059 -48.1045 -48.1028 -39.2083 -39.2073
   -39.0985 -39.0976 -39.0435 -39.0430 -14.1053 -14.1017 -13.7871 -13.7837
    -5.7240  -5.7161  -5.3755  -5.3637  -4.9177  -4.8843  -3.8317  -3.8206
    -3.0813  -3.0754  -2.6375  -2.6272  -0.8652  -0.8307   0.1757   0.2361
     1.4469   1.4960   2.2918   2.3378   3.3126   3.5410   5.3324

          k = 0.1250 0.4330 0.0000 ( 38048 PWs)   bands (ev):

   -74.8770 -74.8765 -48.1530 -48.1516 -48.1508 -48.1496 -48.1490 -48.1482
   -48.1475 -48.1457 -48.1246 -48.1237 -48.1232 -48.1223 -48.1217 -48.1209
   -48.1200 -48.1192 -48.1070 -48.1056 -48.1042 -48.1025 -39.2392 -39.2382
   -39.1106 -39.1096 -39.0364 -39.0358 -13.8122 -13.8090 -13.5427 -13.5396
    -6.3545  -6.3510  -5.5689  -5.5551  -4.5680  -4.5461  -4.0824  -4.0699
    -3.2101  -3.2062  -3.0072  -2.9976  -0.8782  -0.8578   0.5340   0.5831
     1.7466   1.7687   2.3938   2.4422   3.6268   3.8024   5.0806

          k = 0.1250 0.5052 0.0000 ( 38027 PWs)   bands (ev):

   -74.8759 -74.8754 -48.1530 -48.1516 -48.1507 -48.1492 -48.1489 -48.1478
   -48.1471 -48.1453 -48.1248 -48.1238 -48.1234 -48.1224 -48.1219 -48.1210
   -48.1202 -48.1193 -48.1067 -48.1053 -48.1039 -48.1023 -39.2597 -39.2586
   -39.1187 -39.1177 -39.0316 -39.0311 -13.6661 -13.6630 -13.2861 -13.2834
    -6.8752  -6.8716  -5.5898  -5.5809  -4.6233  -4.6132  -4.0477  -4.0368
    -3.2989  -3.2955  -3.1125  -3.0999  -0.9623  -0.9497   0.9983   1.0288
     1.8346   1.8440   2.5958   2.6337   3.6653   3.7431   4.8700

          k = 0.1250 0.5774 0.0000 ( 37968 PWs)   bands (ev):

   -74.8756 -74.8750 -48.1530 -48.1516 -48.1506 -48.1490 -48.1489 -48.1476
   -48.1469 -48.1451 -48.1249 -48.1238 -48.1235 -48.1224 -48.1219 -48.1210
   -48.1202 -48.1193 -48.1066 -48.1052 -48.1038 -48.1022 -39.2668 -39.2658
   -39.1215 -39.1206 -39.0299 -39.0294 -13.6212 -13.6182 -13.1785 -13.1761
    -7.0683  -7.0647  -5.5713  -5.5671  -4.7291  -4.7187  -4.0240  -4.0174
    -3.3181  -3.3158  -3.0806  -3.0688  -1.0134  -1.0021   1.3045   1.3110
     1.7420   1.7537   2.7503   2.7529   3.5329   3.6140   4.8757

          k = 0.1875 0.3248 0.0000 ( 37987 PWs)   bands (ev):

   -74.8787 -74.8782 -48.1529 -48.1515 -48.1507 -48.1504 -48.1490 -48.1489
   -48.1483 -48.1464 -48.1243 -48.1235 -48.1229 -48.1221 -48.1214 -48.1209
   -48.1197 -48.1192 -48.1073 -48.1059 -48.1045 -48.1029 -39.2002 -39.1992
   -39.1026 -39.1016 -39.0442 -39.0436 -14.1273 -14.1237 -13.8174 -13.8140
    -5.4271  -5.4099  -5.3962  -5.3900  -4.9934  -4.9627  -3.8354  -3.8205
    -3.3864  -3.3830  -2.5154  -2.5065  -0.6201  -0.5723  -0.0891  -0.0342
     1.4462   1.5090   2.1141   2.1305   3.2961   3.5422   5.3152

          k = 0.1875 0.3969 0.0000 ( 38014 PWs)   bands (ev):

   -74.8771 -74.8766 -48.1527 -48.1513 -48.1505 -48.1500 -48.1487 -48.1485
   -48.1478 -48.1460 -48.1246 -48.1237 -48.1232 -48.1223 -48.1216 -48.1210
   -48.1199 -48.1193 -48.1070 -48.1056 -48.1042 -48.1026 -39.2249 -39.2239
   -39.1210 -39.1200 -39.0371 -39.0365 -13.7843 -13.7810 -13.6373 -13.6341
    -5.9366  -5.9335  -5.5219  -5.5086  -4.6196  -4.5884  -4.1863  -4.1750
    -3.7307  -3.7275  -2.9154  -2.9133  -0.4468  -0.4149   0.0583   0.1066
     1.7744   1.8088   2.0197   2.0552   3.6589   3.8687   5.6267

          k = 0.1875 0.4691 0.0000 ( 38010 PWs)   bands (ev):

   -74.8759 -74.8754 -48.1525 -48.1511 -48.1503 -48.1496 -48.1485 -48.1482
   -48.1475 -48.1457 -48.1247 -48.1238 -48.1233 -48.1224 -48.1218 -48.1211
   -48.1201 -48.1194 -48.1067 -48.1053 -48.1039 -48.1023 -39.2428 -39.2418
   -39.1359 -39.1349 -39.0316 -39.0311 -13.5905 -13.5874 -13.3859 -13.3830
    -6.4516  -6.4483  -5.5702  -5.5614  -4.4381  -4.4288  -4.2444  -4.2250
    -3.9826  -3.9787  -3.2135  -3.2107  -0.5348  -0.5156   0.5069   0.5387
     1.8457   1.8568   2.1762   2.2290   3.8478   3.9425   5.2173

          k = 0.1875 0.5413 0.0000 ( 38010 PWs)   bands (ev):

   -74.8753 -74.8748 -48.1524 -48.1510 -48.1501 -48.1494 -48.1484 -48.1480
   -48.1473 -48.1455 -48.1248 -48.1239 -48.1234 -48.1225 -48.1219 -48.1212
   -48.1202 -48.1195 -48.1066 -48.1052 -48.1038 -48.1022 -39.2522 -39.2512
   -39.1443 -39.1433 -39.0287 -39.0282 -13.5119 -13.5090 -13.2020 -13.1995
    -6.7513  -6.7479  -5.5758  -5.5712  -4.5692  -4.5603  -4.1757  -4.1670
    -4.0602  -4.0567  -3.2676  -3.2622  -0.6410  -0.6265   0.9859   0.9998
     1.6181   1.6233   2.4592   2.4984   3.6552   3.7291   5.2026

          k = 0.2500 0.4330 0.0000 ( 38031 PWs)   bands (ev):

   -74.8759 -74.8754 -48.1523 -48.1509 -48.1501 -48.1498 -48.1486 -48.1481
   -48.1477 -48.1459 -48.1246 -48.1238 -48.1232 -48.1225 -48.1218 -48.1212
   -48.1201 -48.1195 -48.1067 -48.1053 -48.1039 -48.1023 -39.2339 -39.2329
   -39.1449 -39.1439 -39.0316 -39.0311 -13.5044 -13.5014 -13.4817 -13.4789
    -6.1974  -6.1946  -5.5670  -5.5587  -4.4193  -4.4131  -4.3857  -4.3739
    -4.1802  -4.1627  -3.2852  -3.2812  -0.0618  -0.0260   0.0063   0.0196
     1.8267   1.8494   2.0525   2.1033   3.9229   4.0348   5.4129

          k = 0.2500 0.5052 0.0000 ( 38019 PWs)   bands (ev):

   -74.8751 -74.8746 -48.1519 -48.1505 -48.1500 -48.1495 -48.1486 -48.1477
   -48.1477 -48.1459 -48.1247 -48.1240 -48.1233 -48.1226 -48.1218 -48.1213
   -48.1201 -48.1196 -48.1066 -48.1052 -48.1038 -48.1021 -39.2362 -39.2352
   -39.1647 -39.1637 -39.0280 -39.0275 -13.4049 -13.4021 -13.2673 -13.2646
    -6.3690  -6.3658  -5.5949  -5.5903  -4.8105  -4.8074  -4.3821  -4.3716
    -4.0529  -4.0405  -3.5475  -3.5447  -0.1607  -0.1431   0.4382   0.4496
     1.5591   1.5615   2.3758   2.4487   3.8411   3.8768   5.1088

          k = 0.2500 0.5774 0.0000 ( 38023 PWs)   bands (ev):

   -74.8748 -74.8743 -48.1518 -48.1504 -48.1500 -48.1493 -48.1486 -48.1478
   -48.1476 -48.1460 -48.1246 -48.1241 -48.1232 -48.1227 -48.1219 -48.1213
   -48.1202 -48.1196 -48.1065 -48.1051 -48.1037 -48.1021 -39.2357 -39.2347
   -39.1729 -39.1719 -39.0268 -39.0262 -13.3696 -13.3668 -13.1873 -13.1848
    -6.4271  -6.4237  -5.6013  -5.5980  -4.9787  -4.9756  -4.2186  -4.2129
    -4.2088  -4.2005  -3.5641  -3.5626  -0.2202  -0.2055   0.7979   0.8048
     1.2223   1.2259   2.6789   2.7141   3.5912   3.6335   5.0334

          k = 0.3125 0.5413 0.0000 ( 38095 PWs)   bands (ev):

   -74.8747 -74.8742 -48.1514 -48.1503 -48.1500 -48.1490 -48.1489 -48.1481
   -48.1472 -48.1463 -48.1246 -48.1242 -48.1232 -48.1228 -48.1219 -48.1213
   -48.1202 -48.1196 -48.1065 -48.1051 -48.1037 -48.1021 -39.2208 -39.2198
   -39.1920 -39.1910 -39.0261 -39.0255 -13.2823 -13.2796 -13.2202 -13.2176
    -6.1166  -6.1134  -5.6309  -5.6277  -5.4169  -5.4136  -4.2268  -4.2174
    -3.9293  -3.9228  -3.8989  -3.8908   0.2175   0.2370   0.4022   0.4133
     1.0749   1.0773   2.8658   2.9373   3.5137   3.5541   4.8315

     the Fermi energy is    -0.0131 ev

!    total energy              =   -3113.96324254 Ry
     total all-electron energy =    -83998.687807 Ry
     estimated scf accuracy    <       0.00000008 Ry
     smearing contrib. (-TS)   =       0.00043179 Ry
     internal energy E=F+TS    =   -3113.96367433 Ry

     The total energy is F=E-TS. E is the sum of the following terms:
     one-electron contribution =  -25249.06206151 Ry
     hartree contribution      =   12611.67687567 Ry
     xc contribution           =    -193.57643849 Ry
     ewald contribution        =   11478.31195888 Ry
     one-center paw contrib.   =   -1761.31400888 Ry

     convergence has been achieved in  30 iterations

     Writing all to output data dir ./tmp/cleave_010/wse2_cleave_010.save/ :
     XML data file, charge density, pseudopotentials, collected wavefunctions

     init_run     :     28.20s CPU     29.06s WALL (       1 calls)
     electrons    :   1443.43s CPU   1472.58s WALL (       1 calls)

     Called by init_run:
     wfcinit      :     15.58s CPU     16.01s WALL (       1 calls)
     potinit      :     11.49s CPU     11.80s WALL (       1 calls)
     hinit0       :      0.10s CPU      0.11s WALL (       1 calls)

     Called by electrons:
     c_bands      :   1214.63s CPU   1231.38s WALL (      31 calls)
     sum_band     :    163.52s CPU    169.96s WALL (      31 calls)
     v_of_rho     :     36.59s CPU     38.32s WALL (      31 calls)
     newd         :     22.96s CPU     27.38s WALL (      31 calls)
     PAW_pot      :      3.11s CPU      3.16s WALL (      31 calls)
     mix_rho      :     14.31s CPU     14.47s WALL (      31 calls)
     vdW_kernel   :     10.54s CPU     10.77s WALL (       1 calls)

     Called by c_bands:
     init_us_2    :      5.63s CPU      5.65s WALL (    1890 calls)
     cegterg      :   1187.12s CPU   1203.19s WALL (     930 calls)

     Called by *egterg:
     cdiaghg      :     13.75s CPU     13.78s WALL (    4401 calls)
     h_psi        :    489.98s CPU    494.82s WALL (    4461 calls)
     s_psi        :    112.67s CPU    112.79s WALL (    4461 calls)
     g_psi        :      1.18s CPU      1.18s WALL (    3501 calls)

     Called by h_psi:
     h_psi:calbec :    181.51s CPU    184.17s WALL (    4461 calls)
     vloc_psi     :    178.14s CPU    180.17s WALL (    4461 calls)
                                        0.00s GPU  (    4461 calls)
     add_vuspsi   :    128.62s CPU    128.77s WALL (    4461 calls)

     General routines
     calbec       :    265.18s CPU    268.93s WALL (    5391 calls)
     fft          :     17.48s CPU     17.82s WALL (    1952 calls)
     ffts         :      5.50s CPU      5.59s WALL (    3629 calls)
     fftw         :    198.18s CPU    200.48s WALL (  278606 calls)
     interpolate  :      0.32s CPU      0.33s WALL (      31 calls)

     Parallel routines

     PWSCF        :  24m32.22s CPU  25m 2.46s WALL


   This run was terminated on:  15: 8:27  18Jun2026            

=------------------------------------------------------------------------------=
   JOB DONE.
=------------------------------------------------------------------------------=
Note: The following floating-point exceptions are signalling: IEEE_UNDERFLOW_FLAG IEEE_DENORMAL
Note: The following floating-point exceptions are signalling: IEEE_UNDERFLOW_FLAG IEEE_DENORMAL
Note: The following floating-point exceptions are signalling: IEEE_UNDERFLOW_FLAG IEEE_DENORMAL
Note: The following floating-point exceptions are signalling: IEEE_UNDERFLOW_FLAG IEEE_DENORMAL
Note: The following floating-point exceptions are signalling: IEEE_UNDERFLOW_FLAG IEEE_DENORMAL
Note: The following floating-point exceptions are signalling: IEEE_UNDERFLOW_FLAG IEEE_DENORMAL
Note: The following floating-point exceptions are signalling: IEEE_UNDERFLOW_FLAG IEEE_DENORMAL
Note: The following floating-point exceptions are signalling: IEEE_UNDERFLOW_FLAG IEEE_DENORMAL
Note: The following floating-point exceptions are signalling: IEEE_UNDERFLOW_FLAG IEEE_DENORMAL
Note: The following floating-point exceptions are signalling: IEEE_UNDERFLOW_FLAG IEEE_DENORMAL
Note: The following floating-point exceptions are signalling: IEEE_UNDERFLOW_FLAG IEEE_DENORMAL
Note: The following floating-point exceptions are signalling: IEEE_UNDERFLOW_FLAG IEEE_DENORMAL
