
     Program PWSCF v.7.5 starts on 18Jun2026 at 16:25: 4 

     This program is part of the open-source Quantum ESPRESSO suite
     for quantum simulation of materials; please cite
         "P. Giannozzi et al., J. Phys.:Condens. Matter 21 395502 (2009);
         "P. Giannozzi et al., J. Phys.:Condens. Matter 29 465901 (2017);
         "P. Giannozzi et al., J. Chem. Phys. 152 154105 (2020);
          URL http://www.quantum-espresso.org", 
     in publications or presentations arising from this work. More details at
     http://www.quantum-espresso.org/quote

     Parallel version (MPI), running on    12 processors

     MPI processes distributed on     1 nodes
     26542 MiB available memory on the printing compute node when the environment starts

     Waiting for input...
     Reading input from standard input

     Current dimensions of program PWSCF are:
     Max number of different atomic species (ntypx) = 10
     Max number of k-points (npk) =  40000
     Max angular momentum in pseudopotentials (lmaxx) =  4
     file W.pbe-spn-kjpaw_psl.1.0.0.UPF: wavefunction(s)  6S 5P 5D renormalized
     file Se.pbe-dn-kjpaw_psl.1.0.0.UPF: wavefunction(s)  4S 4P 3D renormalized

     IMPORTANT: XC functional enforced from input :
     Exchange-correlation= VDW-DF2-B86R
                           (   1   4  26   0   2   0   0)
     Any further DFT definition will be discarded
     Please, verify this is what you really want


     R & G space division:  proc/nbgrp/npool/nimage =      12
     Subspace diagonalization in iterative solution of the eigenvalue problem:
     a serial algorithm will be used


     Parallelization info
     --------------------
     sticks:   dense  smooth     PW     G-vecs:    dense   smooth      PW
     Min         139      70     20                71489    25322    3895
     Max         140      71     22                71558    25395    3945
     Sum        1675     847    253               858263   304337   46813

     Using Slab Decomposition



     bravais-lattice index     =            4
     lattice parameter (alat)  =       6.1983  a.u.
     unit-cell volume          =    3143.7277 (a.u.)^3
     number of atoms/cell      =            6
     number of atomic types    =            2
     number of electrons       =        92.00
     number of Kohn-Sham states=           55
     kinetic-energy cutoff     =      80.0000  Ry
     charge density cutoff     =     640.0000  Ry
     scf convergence threshold =      1.0E-07
     mixing beta               =       0.1000
     number of iterations used =           12  local-TF  mixing
     Exchange-correlation= VDW-DF2-B86R
                           (   1   4  26   0   2   0   0)

     celldm(1)=   6.198302  celldm(2)=   0.000000  celldm(3)=  15.243902
     celldm(4)=   0.000000  celldm(5)=   0.000000  celldm(6)=   0.000000

     crystal axes: (cart. coord. in units of alat)
               a(1) = (   1.000000   0.000000   0.000000 )  
               a(2) = (  -0.500000   0.866025   0.000000 )  
               a(3) = (   0.000000   0.000000  15.243902 )  

     reciprocal axes: (cart. coord. in units 2 pi/alat)
               b(1) = (  1.000000  0.577350 -0.000000 )  
               b(2) = (  0.000000  1.154701  0.000000 )  
               b(3) = (  0.000000 -0.000000  0.065600 )  


     PseudoPot. # 1 for W  read from file:
     ./pseudo/W.pbe-spn-kjpaw_psl.1.0.0.UPF
     MD5 check sum: 03c3df5b60893f488392c7401945500a
     Pseudo is Projector augmented-wave + core cor, Zval = 14.0
     Generated using &quot;atomic&quot; code by A. Dal Corso  v.6.2.2
     Shape of augmentation charge: PSQ
     Using radial grid of 1273 points,  6 beta functions with: 
                l(1) =   0
                l(2) =   0
                l(3) =   1
                l(4) =   1
                l(5) =   2
                l(6) =   2
     Q(r) pseudized with 0 coefficients 


     PseudoPot. # 2 for Se read from file:
     ./pseudo/Se.pbe-dn-kjpaw_psl.1.0.0.UPF
     MD5 check sum: ac240dd2bae32a30e0bf3a38df9c8785
     Pseudo is Projector augmented-wave + core cor, Zval = 16.0
     Generated using &quot;atomic&quot; code by A. Dal Corso  v.6.3
     Shape of augmentation charge: PSQ
     Using radial grid of 1211 points,  6 beta functions with: 
                l(1) =   0
                l(2) =   0
                l(3) =   1
                l(4) =   1
                l(5) =   2
                l(6) =   2
     Q(r) pseudized with 0 coefficients 


     atomic species   valence    mass     pseudopotential
     W                14.00   183.84000     W ( 1.00)
     Se               16.00    78.96000     Se( 1.00)

      6 Sym. Ops. (no inversion) found



   Cartesian axes

     site n.     atom                  positions (alat units)
         1        Se     tau(   1) = (  -0.0000005   0.5773506   6.1149390  )
         2        W      tau(   2) = (   0.0000000   0.0000000   6.6383232  )
         3        Se     tau(   3) = (   0.5000005   0.2886748   7.1618445  )
         4        Se     tau(   4) = (  -0.0000005   0.5773506   9.1182165  )
         5        W      tau(   5) = (   0.5000005   0.2886748   9.6414634  )
         6        Se     tau(   6) = (   0.0000000   0.0000000  10.1655488  )

     number of k points=    30  Methfessel-Paxton smearing, width (Ry)=  0.0200
                       cart. coord. in units 2pi/alat
        k(    1) = (   0.0000000   0.0000000   0.0000000), wk =   0.0078125
        k(    2) = (   0.0000000   0.0721688   0.0000000), wk =   0.0468750
        k(    3) = (   0.0000000   0.1443376   0.0000000), wk =   0.0468750
        k(    4) = (   0.0000000   0.2165064   0.0000000), wk =   0.0468750
        k(    5) = (   0.0000000   0.2886751   0.0000000), wk =   0.0468750
        k(    6) = (   0.0000000   0.3608439   0.0000000), wk =   0.0468750
        k(    7) = (   0.0000000   0.4330127   0.0000000), wk =   0.0468750
        k(    8) = (   0.0000000   0.5051815   0.0000000), wk =   0.0468750
        k(    9) = (   0.0000000  -0.5773503   0.0000000), wk =   0.0234375
        k(   10) = (   0.0625000   0.1082532   0.0000000), wk =   0.0468750
        k(   11) = (   0.0625000   0.1804220   0.0000000), wk =   0.0937500
        k(   12) = (   0.0625000   0.2525907   0.0000000), wk =   0.0937500
        k(   13) = (   0.0625000   0.3247595   0.0000000), wk =   0.0937500
        k(   14) = (   0.0625000   0.3969283   0.0000000), wk =   0.0937500
        k(   15) = (   0.0625000   0.4690971   0.0000000), wk =   0.0937500
        k(   16) = (   0.0625000   0.5412659   0.0000000), wk =   0.0937500
        k(   17) = (   0.1250000   0.2165064   0.0000000), wk =   0.0468750
        k(   18) = (   0.1250000   0.2886751   0.0000000), wk =   0.0937500
        k(   19) = (   0.1250000   0.3608439   0.0000000), wk =   0.0937500
        k(   20) = (   0.1250000   0.4330127   0.0000000), wk =   0.0937500
        k(   21) = (   0.1250000   0.5051815   0.0000000), wk =   0.0937500
        k(   22) = (   0.1250000   0.5773503   0.0000000), wk =   0.0468750
        k(   23) = (   0.1875000   0.3247595   0.0000000), wk =   0.0468750
        k(   24) = (   0.1875000   0.3969283   0.0000000), wk =   0.0937500
        k(   25) = (   0.1875000   0.4690971   0.0000000), wk =   0.0937500
        k(   26) = (   0.1875000   0.5412659   0.0000000), wk =   0.0937500
        k(   27) = (   0.2500000   0.4330127   0.0000000), wk =   0.0468750
        k(   28) = (   0.2500000   0.5051815   0.0000000), wk =   0.0937500
        k(   29) = (   0.2500000   0.5773503   0.0000000), wk =   0.0468750
        k(   30) = (   0.3125000   0.5412659   0.0000000), wk =   0.0468750

     Dense  grid:   858263 G-vectors     FFT dimensions: (  50,  50, 768)

     Smooth grid:   304337 G-vectors     FFT dimensions: (  36,  36, 540)

     Estimated max dynamical RAM per process >     350.14 MB

     Estimated total dynamical RAM >       4.10 GB

     Initial potential from superposition of free atoms

     starting charge      91.9986, renormalised to      92.0000

     negative rho (up, down):  1.678E-04 0.000E+00


     %%%%%%%%%%%%%%%%%%%%%%%%%%%%%%%%%%%%%%%%%%%%%%%%%%%%%%%%%%%%%%%%%%%%%%%%
     %                                                                      %
     % You are using vdW-DF, which was implemented by the Thonhauser group. %
     % Please cite the following two papers that made this development      %
     % possible and the two reviews that describe the various versions:     %
     %                                                                      %
     %   T. Thonhauser et al., PRL 115, 136402 (2015).                      %
     %   T. Thonhauser et al., PRB 76, 125112 (2007).                       %
     %   K. Berland et al., Rep. Prog. Phys. 78, 066501 (2015).             %
     %   D.C. Langreth et al., J. Phys.: Condens. Matter 21, 084203 (2009). %
     %                                                                      %
     % If you are calculating stress with vdW-DF, please also cite:         %
     %                                                                      %
     %   R. Sabatini et al., J. Phys.: Condens. Matter 24, 424209 (2012).   %
     %                                                                      %
     %%%%%%%%%%%%%%%%%%%%%%%%%%%%%%%%%%%%%%%%%%%%%%%%%%%%%%%%%%%%%%%%%%%%%%%%

     %%%%%%%%%%%%%%%%%%%%%%%%%%%%%%%%%%%%%%%%%%%%%%%%%%%%%%%%%%%%%%%%%%%%%%%%
     %                                                                      %
     %  vdW-DF NEWS:                                                        %
     %                                                                      %
     %  * vdW-DF3 is now available. DOI: 10.1021/acs.jctc.0c00471           %
     %    use with input_dft = 'vdW-DF3-opt1' or 'vdW-DF3-opt2'             %
     %                                                                      %
     %  * Unscreened and range-separated hybrid vdW-DF-cx functionals       %
     %    DOI: 10.1063/1.4986522 and 10.1088/1361-648X/ac2ad2               %
     %    use with input_dft = 'vdW-DF-cx0'    and 'vdW-DF-ahcx'            %
     %  * Unscreened and range-separated hybrid vdW-DF2-b86r functionals    %
     %    DOI: 10.1063/1.4986522 and DOI: 10.1103/PhysRevX.12.041003        %
     %    use with input_dft = 'vdW-DF2-br0' and 'vdW-DF2-ahbr'             %
     %                                                                      %
     %%%%%%%%%%%%%%%%%%%%%%%%%%%%%%%%%%%%%%%%%%%%%%%%%%%%%%%%%%%%%%%%%%%%%%%%


     Starting wfcs are   62 randomized atomic wfcs
     Checking if some PAW data can be deallocated... 

     total cpu time spent up to now is       44.0 secs

     per-process dynamical memory:   142.9 Mb

     Self-consistent Calculation

     iteration #  1     ecut=    80.00 Ry     beta= 0.10
     Davidson diagonalization with overlap
     ethr =  1.00E-02,  avg # of iterations =  4.2

     Threshold (ethr) on eigenvalues was too large:
     Diagonalizing with lowered threshold

     Davidson diagonalization with overlap
     ethr =  1.09E-04,  avg # of iterations =  5.5

     negative rho (up, down):  1.018E-04 0.000E+00

     total cpu time spent up to now is      226.6 secs

     total energy              =   -3113.99360490 Ry
     estimated scf accuracy    <       0.12881024 Ry

     iteration #  2     ecut=    80.00 Ry     beta= 0.10
     Davidson diagonalization with overlap
     ethr =  1.40E-04,  avg # of iterations =  1.0

     negative rho (up, down):  8.626E-05 0.000E+00

     total cpu time spent up to now is      293.2 secs

     total energy              =   -3113.94906134 Ry
     estimated scf accuracy    <       0.11759021 Ry

     iteration #  3     ecut=    80.00 Ry     beta= 0.10
     Davidson diagonalization with overlap
     ethr =  1.28E-04,  avg # of iterations =  2.3

     negative rho (up, down):  1.153E-05 0.000E+00

     total cpu time spent up to now is      388.0 secs

     total energy              =   -3113.96374442 Ry
     estimated scf accuracy    <       0.02340394 Ry

     iteration #  4     ecut=    80.00 Ry     beta= 0.10
     Davidson diagonalization with overlap
     ethr =  2.54E-05,  avg # of iterations =  1.9

     negative rho (up, down):  6.461E-08 0.000E+00

     total cpu time spent up to now is      477.4 secs

     total energy              =   -3113.95927614 Ry
     estimated scf accuracy    <       0.02109256 Ry

     iteration #  5     ecut=    80.00 Ry     beta= 0.10
     Davidson diagonalization with overlap
     ethr =  2.29E-05,  avg # of iterations =  4.6

     negative rho (up, down):  5.235E-08 0.000E+00

     total cpu time spent up to now is      582.8 secs

     total energy              =   -3113.96108557 Ry
     estimated scf accuracy    <       0.00285702 Ry

     iteration #  6     ecut=    80.00 Ry     beta= 0.10
     Davidson diagonalization with overlap
     c_bands:  1 eigenvalues not converged
     c_bands:  1 eigenvalues not converged
     c_bands:  1 eigenvalues not converged
     ethr =  3.11E-06,  avg # of iterations =  9.0

     negative rho (up, down):  2.509E-07 0.000E+00

     total cpu time spent up to now is      691.9 secs

     total energy              =   -3113.96000148 Ry
     estimated scf accuracy    <       0.00262832 Ry

     iteration #  7     ecut=    80.00 Ry     beta= 0.10
     Davidson diagonalization with overlap
     ethr =  2.86E-06,  avg # of iterations =  5.3

     negative rho (up, down):  2.541E-07 0.000E+00

     total cpu time spent up to now is      806.5 secs

     total energy              =   -3113.95978901 Ry
     estimated scf accuracy    <       0.00374617 Ry

     iteration #  8     ecut=    80.00 Ry     beta= 0.10
     Davidson diagonalization with overlap
     ethr =  2.86E-06,  avg # of iterations =  3.1

     negative rho (up, down):  1.166E-08 0.000E+00

     total cpu time spent up to now is      911.0 secs

     total energy              =   -3113.95993672 Ry
     estimated scf accuracy    <       0.00075800 Ry

     iteration #  9     ecut=    80.00 Ry     beta= 0.10
     Davidson diagonalization with overlap
     c_bands:  1 eigenvalues not converged
     ethr =  8.24E-07,  avg # of iterations =  6.5

     negative rho (up, down):  2.055E-08 0.000E+00

     total cpu time spent up to now is     1012.7 secs

     total energy              =   -3113.95988316 Ry
     estimated scf accuracy    <       0.00057809 Ry

     iteration # 10     ecut=    80.00 Ry     beta= 0.10
     Davidson diagonalization with overlap
     ethr =  6.28E-07,  avg # of iterations =  2.9

     total cpu time spent up to now is     1109.9 secs

     total energy              =   -3113.95990562 Ry
     estimated scf accuracy    <       0.00050390 Ry

     iteration # 11     ecut=    80.00 Ry     beta= 0.10
     Davidson diagonalization with overlap
     ethr =  5.48E-07,  avg # of iterations =  1.2

     negative rho (up, down):  4.638E-08 0.000E+00

     total cpu time spent up to now is     1200.9 secs

     total energy              =   -3113.95988444 Ry
     estimated scf accuracy    <       0.00044256 Ry

     iteration # 12     ecut=    80.00 Ry     beta= 0.10
     Davidson diagonalization with overlap
     ethr =  4.81E-07,  avg # of iterations =  4.4

     negative rho (up, down):  3.163E-03 0.000E+00

     total cpu time spent up to now is     1302.3 secs

     total energy              =   -3113.95983335 Ry
     estimated scf accuracy    <       0.00048152 Ry

     iteration # 13     ecut=    80.00 Ry     beta= 0.10
     Davidson diagonalization with overlap
     ethr =  4.81E-07,  avg # of iterations =  1.5

     negative rho (up, down):  3.060E-03 0.000E+00

     total cpu time spent up to now is     1402.0 secs

     total energy              =   -3113.95985916 Ry
     estimated scf accuracy    <       0.00029582 Ry

     iteration # 14     ecut=    80.00 Ry     beta= 0.10
     Davidson diagonalization with overlap
     ethr =  3.22E-07,  avg # of iterations =  1.5

     negative rho (up, down):  3.625E-03 0.000E+00

     total cpu time spent up to now is     1489.9 secs

     total energy              =   -3113.95980517 Ry
     estimated scf accuracy    <       0.00032751 Ry

     iteration # 15     ecut=    80.00 Ry     beta= 0.10
     Davidson diagonalization with overlap
     ethr =  3.22E-07,  avg # of iterations =  3.8

     negative rho (up, down):  3.243E-03 0.000E+00

     total cpu time spent up to now is     1613.4 secs

     total energy              =   -3113.95985308 Ry
     estimated scf accuracy    <       0.00019324 Ry

     iteration # 16     ecut=    80.00 Ry     beta= 0.10
     Davidson diagonalization with overlap
     ethr =  2.10E-07,  avg # of iterations =  1.1

     negative rho (up, down):  4.541E-03 0.000E+00

     total cpu time spent up to now is     1701.3 secs

     total energy              =   -3113.95983652 Ry
     estimated scf accuracy    <       0.00020224 Ry

     iteration # 17     ecut=    80.00 Ry     beta= 0.10
     Davidson diagonalization with overlap
     ethr =  2.10E-07,  avg # of iterations =  5.9

     negative rho (up, down):  2.938E-03 0.000E+00

     total cpu time spent up to now is     1812.2 secs

     total energy              =   -3113.95981078 Ry
     estimated scf accuracy    <       0.00026323 Ry

     iteration # 18     ecut=    80.00 Ry     beta= 0.10
     Davidson diagonalization with overlap
     ethr =  2.10E-07,  avg # of iterations =  2.8

     negative rho (up, down):  2.933E-03 0.000E+00

     total cpu time spent up to now is     1906.9 secs

     total energy              =   -3113.95981841 Ry
     estimated scf accuracy    <       0.00013479 Ry

     iteration # 19     ecut=    80.00 Ry     beta= 0.10
     Davidson diagonalization with overlap
     ethr =  1.47E-07,  avg # of iterations =  1.1

     negative rho (up, down):  8.357E-04 0.000E+00

     total cpu time spent up to now is     1974.6 secs

     total energy              =   -3113.95975912 Ry
     estimated scf accuracy    <       0.00011284 Ry

     iteration # 20     ecut=    80.00 Ry     beta= 0.10
     Davidson diagonalization with overlap
     ethr =  1.23E-07,  avg # of iterations =  5.2

     negative rho (up, down):  1.756E-03 0.000E+00

     total cpu time spent up to now is     2069.5 secs

     total energy              =   -3113.95975400 Ry
     estimated scf accuracy    <       0.00003759 Ry

     iteration # 21     ecut=    80.00 Ry     beta= 0.10
     Davidson diagonalization with overlap
     ethr =  4.09E-08,  avg # of iterations =  3.6

     negative rho (up, down):  1.067E-03 0.000E+00

     total cpu time spent up to now is     2154.0 secs

     total energy              =   -3113.95977570 Ry
     estimated scf accuracy    <       0.00003509 Ry

     iteration # 22     ecut=    80.00 Ry     beta= 0.10
     Davidson diagonalization with overlap
     ethr =  3.81E-08,  avg # of iterations =  2.0

     negative rho (up, down):  7.750E-04 0.000E+00

     total cpu time spent up to now is     2263.3 secs

     total energy              =   -3113.95976436 Ry
     estimated scf accuracy    <       0.00002350 Ry

     iteration # 23     ecut=    80.00 Ry     beta= 0.10
     Davidson diagonalization with overlap
     ethr =  2.55E-08,  avg # of iterations =  2.0

     negative rho (up, down):  6.172E-04 0.000E+00

     total cpu time spent up to now is     2360.6 secs

     total energy              =   -3113.95976739 Ry
     estimated scf accuracy    <       0.00001679 Ry

     iteration # 24     ecut=    80.00 Ry     beta= 0.10
     Davidson diagonalization with overlap
     ethr =  1.83E-08,  avg # of iterations =  1.6

     negative rho (up, down):  6.470E-04 0.000E+00

     total cpu time spent up to now is     2452.1 secs

     total energy              =   -3113.95977400 Ry
     estimated scf accuracy    <       0.00000942 Ry

     iteration # 25     ecut=    80.00 Ry     beta= 0.10
     Davidson diagonalization with overlap
     ethr =  1.02E-08,  avg # of iterations =  1.7

     negative rho (up, down):  5.277E-04 0.000E+00

     total cpu time spent up to now is     2550.5 secs

     total energy              =   -3113.95978132 Ry
     estimated scf accuracy    <       0.00000699 Ry

     iteration # 26     ecut=    80.00 Ry     beta= 0.10
     Davidson diagonalization with overlap
     ethr =  7.60E-09,  avg # of iterations =  3.4

     negative rho (up, down):  3.881E-04 0.000E+00

     total cpu time spent up to now is     2659.2 secs

     total energy              =   -3113.95978416 Ry
     estimated scf accuracy    <       0.00000047 Ry

     iteration # 27     ecut=    80.00 Ry     beta= 0.10
     Davidson diagonalization with overlap
     ethr =  5.16E-10,  avg # of iterations =  3.4

     negative rho (up, down):  2.876E-04 0.000E+00

     total cpu time spent up to now is     2773.9 secs

     total energy              =   -3113.95978505 Ry
     estimated scf accuracy    <       0.00000075 Ry

     iteration # 28     ecut=    80.00 Ry     beta= 0.10
     Davidson diagonalization with overlap
     ethr =  5.16E-10,  avg # of iterations =  2.0

     negative rho (up, down):  1.888E-04 0.000E+00

     total cpu time spent up to now is     2877.6 secs

     total energy              =   -3113.95978647 Ry
     estimated scf accuracy    <       0.00000026 Ry

     iteration # 29     ecut=    80.00 Ry     beta= 0.10
     Davidson diagonalization with overlap
     ethr =  2.87E-10,  avg # of iterations =  2.5

     negative rho (up, down):  1.651E-04 0.000E+00

     total cpu time spent up to now is     2987.4 secs

     End of self-consistent calculation

          k = 0.0000 0.0000 0.0000 ( 38015 PWs)   bands (ev):

   -74.8865 -74.8863 -48.1525 -48.1525 -48.1519 -48.1519 -48.1518 -48.1518
   -48.1505 -48.1505 -48.1218 -48.1218 -48.1212 -48.1212 -48.1212 -48.1212
   -48.1198 -48.1198 -48.1078 -48.1071 -48.1070 -48.1057 -39.0796 -39.0792
   -39.0444 -39.0444 -39.0438 -39.0437 -15.5160 -15.5130 -14.4451 -14.4439
    -6.9793  -6.9743  -3.3573  -3.3573  -3.3527  -3.3527  -3.3519  -3.3184
    -1.3477  -1.3091  -0.6934  -0.6933  -0.6913  -0.6913   0.2030   0.2030
     0.2051   0.2051   2.8289   3.4053   3.4054   3.4072   3.4072

          k = 0.0000 0.0722 0.0000 ( 37975 PWs)   bands (ev):

   -74.8861 -74.8859 -48.1524 -48.1523 -48.1518 -48.1518 -48.1517 -48.1516
   -48.1504 -48.1503 -48.1219 -48.1218 -48.1213 -48.1212 -48.1212 -48.1212
   -48.1199 -48.1198 -48.1077 -48.1070 -48.1069 -48.1056 -39.0778 -39.0774
   -39.0535 -39.0528 -39.0465 -39.0459 -15.4549 -15.4519 -14.4171 -14.4158
    -6.8968  -6.8919  -3.8492  -3.8374  -3.3226  -3.3180  -2.9359  -2.9145
    -1.4151  -1.3886  -0.9831  -0.9753  -0.9224  -0.9201   0.1843   0.1970
     0.4044   0.4062   2.8723   3.0771   3.1496   3.3637   3.3655

          k = 0.0000 0.1443 0.0000 ( 37895 PWs)   bands (ev):

   -74.8850 -74.8848 -48.1524 -48.1519 -48.1517 -48.1517 -48.1511 -48.1511
   -48.1504 -48.1497 -48.1221 -48.1219 -48.1215 -48.1214 -48.1213 -48.1212
   -48.1200 -48.1199 -48.1074 -48.1068 -48.1067 -48.1054 -39.0793 -39.0787
   -39.0726 -39.0722 -39.0525 -39.0519 -15.2758 -15.2729 -14.3352 -14.3338
    -6.6571  -6.6521  -4.3523  -4.3439  -3.2395  -3.2350  -2.7123  -2.6929
    -2.0428  -2.0380  -1.3059  -1.3033  -1.2074  -1.1828   0.1772   0.2047
     0.7084   0.7097   2.4223   2.5212   3.2874   3.2890   3.3394

          k = 0.0000 0.2165 0.0000 ( 37851 PWs)   bands (ev):

   -74.8833 -74.8831 -48.1523 -48.1519 -48.1517 -48.1509 -48.1505 -48.1504
   -48.1503 -48.1490 -48.1225 -48.1221 -48.1218 -48.1216 -48.1214 -48.1212
   -48.1203 -48.1199 -48.1070 -48.1064 -48.1063 -48.1050 -39.1176 -39.1169
   -39.0649 -39.0645 -39.0616 -39.0609 -14.9925 -14.9896 -14.2058 -14.2042
    -6.2894  -6.2845  -4.8036  -4.7974  -3.3007  -3.2979  -3.1765  -3.1721
    -2.4573  -2.4402  -1.5985  -1.5957  -1.3405  -1.3261   0.2113   0.2467
     0.9112   0.9121   2.1097   2.2227   3.2609   3.2625   3.7336

          k = 0.0000 0.2887 0.0000 ( 37919 PWs)   bands (ev):

   -74.8813 -74.8811 -48.1524 -48.1519 -48.1518 -48.1505 -48.1501 -48.1495
   -48.1494 -48.1481 -48.1229 -48.1223 -48.1222 -48.1219 -48.1215 -48.1213
   -48.1206 -48.1200 -48.1066 -48.1060 -48.1059 -48.1046 -39.1625 -39.1618
   -39.0722 -39.0715 -39.0558 -39.0554 -14.6316 -14.6289 -14.0377 -14.0359
    -5.8982  -5.8938  -5.1194  -5.1146  -4.3585  -4.3557  -3.2221  -3.2178
    -2.6258  -2.6142  -1.6963  -1.6933  -1.6407  -1.6340   0.3692   0.4051
     1.0160   1.0167   2.2384   2.3735   3.3061   3.3078   4.2121

          k = 0.0000 0.3608 0.0000 ( 37933 PWs)   bands (ev):

   -74.8793 -74.8790 -48.1525 -48.1518 -48.1518 -48.1504 -48.1492 -48.1487
   -48.1486 -48.1472 -48.1233 -48.1226 -48.1224 -48.1221 -48.1217 -48.1213
   -48.1209 -48.1201 -48.1062 -48.1055 -48.1054 -48.1041 -39.2070 -39.2063
   -39.0828 -39.0821 -39.0466 -39.0463 -14.2470 -14.2444 -13.8327 -13.8307
    -5.9088  -5.9058  -5.3351  -5.3322  -4.9183  -4.9139  -3.3711  -3.3671
    -2.9696  -2.9634  -1.9440  -1.9393  -1.6358  -1.6328   0.7122   0.7423
     1.1093   1.1101   2.6768   2.8223   3.3799   3.3818   4.7118

          k = 0.0000 0.4330 0.0000 ( 37998 PWs)   bands (ev):

   -74.8776 -74.8773 -48.1526 -48.1519 -48.1518 -48.1504 -48.1484 -48.1479
   -48.1478 -48.1465 -48.1237 -48.1229 -48.1225 -48.1223 -48.1218 -48.1214
   -48.1211 -48.1201 -48.1058 -48.1052 -48.1051 -48.1038 -39.2445 -39.2438
   -39.0918 -39.0911 -39.0389 -39.0385 -13.9425 -13.9398 -13.5697 -13.5676
    -6.5233  -6.5204  -5.6044  -5.6015  -4.6952  -4.6922  -3.5357  -3.5318
    -3.2618  -3.2571  -2.1304  -2.1271  -1.5403  -1.5376   1.1825   1.2041
     1.2481   1.2493   3.1986   3.3131   3.4417   3.4439   4.5231

          k = 0.0000 0.5052 0.0000 ( 38048 PWs)   bands (ev):

   -74.8764 -74.8762 -48.1527 -48.1520 -48.1517 -48.1504 -48.1480 -48.1475
   -48.1473 -48.1460 -48.1240 -48.1232 -48.1226 -48.1225 -48.1219 -48.1214
   -48.1212 -48.1202 -48.1056 -48.1049 -48.1048 -48.1035 -39.2694 -39.2687
   -39.0977 -39.0971 -39.0337 -39.0333 -13.7810 -13.7782 -13.3014 -13.2993
    -7.0873  -7.0843  -5.6219  -5.6197  -4.7703  -4.7684  -3.6524  -3.6486
    -3.1942  -3.1901  -2.2477  -2.2459  -1.4789  -1.4764   1.3975   1.3990
     1.6590   1.6714   3.4358   3.4679   3.4780   3.4804   4.4466

          k = 0.0000-0.5774 0.0000 ( 38024 PWs)   bands (ev):

   -74.8760 -74.8758 -48.1527 -48.1520 -48.1517 -48.1504 -48.1478 -48.1473
   -48.1472 -48.1459 -48.1241 -48.1233 -48.1227 -48.1225 -48.1219 -48.1214
   -48.1213 -48.1202 -48.1055 -48.1048 -48.1047 -48.1034 -39.2782 -39.2774
   -39.0998 -39.0992 -39.0318 -39.0315 -13.7312 -13.7283 -13.1869 -13.1850
    -7.3001  -7.2971  -5.5864  -5.5848  -4.8924  -4.8904  -3.6938  -3.6899
    -3.0777  -3.0748  -2.3004  -2.2991  -1.4599  -1.4575   1.4641   1.4658
     1.8860   1.8908   3.4627   3.4836   3.4896   3.4920   4.2230

          k = 0.0625 0.1083 0.0000 ( 37895 PWs)   bands (ev):

   -74.8854 -74.8851 -48.1524 -48.1519 -48.1518 -48.1517 -48.1513 -48.1513
   -48.1504 -48.1499 -48.1220 -48.1219 -48.1214 -48.1213 -48.1213 -48.1212
   -48.1200 -48.1198 -48.1075 -48.1068 -48.1067 -48.1054 -39.0744 -39.0740
   -39.0706 -39.0700 -39.0508 -39.0502 -15.3348 -15.3318 -14.3621 -14.3608
    -6.7353  -6.7304  -4.2181  -4.2089  -3.2714  -3.2668  -2.7353  -2.7137
    -1.7833  -1.7787  -1.3152  -1.3121  -1.1177  -1.0927   0.2482   0.2713
     0.5568   0.5582   2.6296   2.7368   3.1837   3.2286   3.3052

          k = 0.0625 0.1804 0.0000 ( 37885 PWs)   bands (ev):

   -74.8839 -74.8837 -48.1523 -48.1519 -48.1517 -48.1513 -48.1507 -48.1506
   -48.1504 -48.1493 -48.1223 -48.1220 -48.1217 -48.1215 -48.1214 -48.1213
   -48.1202 -48.1199 -48.1072 -48.1065 -48.1064 -48.1051 -39.1020 -39.1013
   -39.0680 -39.0676 -39.0590 -39.0583 -15.1031 -15.1003 -14.2566 -14.2551
    -6.4275  -6.4225  -4.6488  -4.6419  -3.2629  -3.2585  -2.8093  -2.8007
    -2.4735  -2.4649  -1.6591  -1.6539  -1.1496  -1.1283   0.3067   0.3342
     0.6600   0.6670   2.3552   2.4618   3.0692   3.0812   3.6012

          k = 0.0625 0.2526 0.0000 ( 37916 PWs)   bands (ev):

   -74.8821 -74.8819 -48.1523 -48.1519 -48.1517 -48.1505 -48.1504 -48.1499
   -48.1498 -48.1485 -48.1227 -48.1222 -48.1220 -48.1217 -48.1215 -48.1213
   -48.1204 -48.1200 -48.1068 -48.1061 -48.1060 -48.1047 -39.1426 -39.1419
   -39.0700 -39.0694 -39.0593 -39.0589 -14.7791 -14.7764 -14.1088 -14.1071
    -6.0216  -6.0169  -5.0213  -5.0160  -3.9034  -3.9006  -3.2014  -3.1976
    -2.6045  -2.5948  -1.9192  -1.9148  -1.2144  -1.2027   0.2643   0.2906
     0.8625   0.8788   2.2910   2.3976   3.0699   3.0984   4.0336

          k = 0.0625 0.3248 0.0000 ( 37964 PWs)   bands (ev):

   -74.8801 -74.8799 -48.1524 -48.1518 -48.1517 -48.1504 -48.1496 -48.1491
   -48.1490 -48.1477 -48.1232 -48.1224 -48.1223 -48.1220 -48.1216 -48.1214
   -48.1207 -48.1201 -48.1064 -48.1057 -48.1056 -48.1043 -39.1863 -39.1856
   -39.0816 -39.0809 -39.0503 -39.0499 -14.3996 -14.3969 -13.9266 -13.9247
    -5.7496  -5.7460  -5.1906  -5.1866  -4.8269  -4.8236  -3.4343  -3.4308
    -2.7164  -2.7100  -2.2475  -2.2453  -1.2688  -1.2626   0.3796   0.4033
     1.1195   1.1330   2.4596   2.5568   3.1935   3.2497   4.5399

          k = 0.0625 0.3969 0.0000 ( 37981 PWs)   bands (ev):

   -74.8782 -74.8780 -48.1525 -48.1518 -48.1517 -48.1503 -48.1488 -48.1483
   -48.1482 -48.1469 -48.1235 -48.1228 -48.1225 -48.1222 -48.1218 -48.1214
   -48.1210 -48.1202 -48.1060 -48.1053 -48.1052 -48.1039 -39.2263 -39.2256
   -39.0923 -39.0917 -39.0418 -39.0415 -14.0420 -14.0394 -13.7003 -13.6982
    -6.1363  -6.1334  -5.5133  -5.5102  -4.7706  -4.7666  -3.6831  -3.6799
    -2.9817  -2.9782  -2.4762  -2.4740  -1.2616  -1.2581   0.6763   0.6928
     1.3911   1.4008   2.7665   2.8252   3.3994   3.4858   4.8606

          k = 0.0625 0.4691 0.0000 ( 38057 PWs)   bands (ev):

   -74.8768 -74.8766 -48.1526 -48.1518 -48.1516 -48.1503 -48.1482 -48.1477
   -48.1476 -48.1463 -48.1238 -48.1231 -48.1227 -48.1223 -48.1219 -48.1215
   -48.1211 -48.1202 -48.1057 -48.1050 -48.1049 -48.1036 -39.2568 -39.2561
   -39.1005 -39.0999 -39.0354 -39.0350 -13.8143 -13.8116 -13.4204 -13.4183
    -6.7888  -6.7859  -5.6170  -5.6144  -4.6554  -4.6532  -3.7972  -3.7939
    -3.1493  -3.1461  -2.5727  -2.5709  -1.2660  -1.2639   1.0567   1.0653
     1.6644   1.6719   3.0117   3.0327   3.5903   3.6389   4.5884

          k = 0.0625 0.5413 0.0000 ( 38034 PWs)   bands (ev):

   -74.8760 -74.8758 -48.1526 -48.1518 -48.1515 -48.1502 -48.1479 -48.1474
   -48.1473 -48.1460 -48.1240 -48.1232 -48.1228 -48.1224 -48.1220 -48.1215
   -48.1212 -48.1202 -48.1055 -48.1048 -48.1047 -48.1034 -39.2732 -39.2725
   -39.1049 -39.1043 -39.0319 -39.0315 -13.7148 -13.7120 -13.2139 -13.2119
    -7.1880  -7.1850  -5.5912  -5.5893  -4.8133  -4.8113  -3.8069  -3.8034
    -3.0719  -3.0691  -2.6229  -2.6216  -1.2927  -1.2910   1.3654   1.3681
     1.8380   1.8429   3.1746   3.1810   3.5205   3.5420   4.4883

          k = 0.1250 0.2165 0.0000 ( 37933 PWs)   bands (ev):

   -74.8824 -74.8821 -48.1522 -48.1518 -48.1516 -48.1507 -48.1504 -48.1501
   -48.1500 -48.1487 -48.1227 -48.1221 -48.1220 -48.1216 -48.1215 -48.1214
   -48.1204 -48.1200 -48.1069 -48.1062 -48.1061 -48.1048 -39.1343 -39.1337
   -39.0707 -39.0701 -39.0604 -39.0600 -14.8297 -14.8269 -14.1332 -14.1315
    -6.0662  -6.0614  -4.9734  -4.9678  -3.7376  -3.7343  -2.9818  -2.9742
    -2.9002  -2.8967  -1.9173  -1.9089  -1.0470  -1.0290   0.2725   0.2822
     0.6855   0.7189   2.6012   2.6913   2.6917   2.7406   3.9793

          k = 0.1250 0.2887 0.0000 ( 37936 PWs)   bands (ev):

   -74.8805 -74.8803 -48.1522 -48.1516 -48.1515 -48.1502 -48.1500 -48.1494
   -48.1493 -48.1480 -48.1231 -48.1223 -48.1222 -48.1219 -48.1216 -48.1215
   -48.1206 -48.1201 -48.1065 -48.1058 -48.1057 -48.1044 -39.1716 -39.1709
   -39.0845 -39.0838 -39.0522 -39.0518 -14.4806 -14.4779 -13.9750 -13.9732
    -5.6508  -5.6465  -5.2305  -5.2260  -4.5457  -4.5427  -3.4408  -3.4373
    -2.9766  -2.9736  -2.2001  -2.1953  -0.9318  -0.9193   0.0880   0.1039
     1.0708   1.0989   2.3844   2.4042   2.9680   3.1060   4.4464

          k = 0.1250 0.3608 0.0000 ( 38000 PWs)   bands (ev):

   -74.8787 -74.8784 -48.1522 -48.1515 -48.1515 -48.1501 -48.1492 -48.1487
   -48.1486 -48.1473 -48.1234 -48.1227 -48.1224 -48.1221 -48.1217 -48.1216
   -48.1208 -48.1203 -48.1061 -48.1054 -48.1053 -48.1040 -39.2084 -39.2077
   -39.0986 -39.0979 -39.0438 -39.0434 -14.1056 -14.1030 -13.7874 -13.7853
    -5.7217  -5.7188  -5.3712  -5.3682  -4.9033  -4.8987  -3.8282  -3.8252
    -3.0803  -3.0777  -2.6344  -2.6321  -0.8512  -0.8436   0.1988   0.2145
     1.4634   1.4800   2.3041   2.3252   3.3379   3.4757   4.9594

          k = 0.1250 0.4330 0.0000 ( 38048 PWs)   bands (ev):

   -74.8771 -74.8769 -48.1522 -48.1515 -48.1513 -48.1500 -48.1486 -48.1482
   -48.1480 -48.1467 -48.1237 -48.1229 -48.1226 -48.1222 -48.1219 -48.1217
   -48.1210 -48.1203 -48.1057 -48.1051 -48.1050 -48.1037 -39.2392 -39.2385
   -39.1107 -39.1100 -39.0367 -39.0363 -13.8128 -13.8101 -13.5432 -13.5410
    -6.3546  -6.3517  -5.5635  -5.5605  -4.5589  -4.5557  -4.0783  -4.0753
    -3.2098  -3.2076  -3.0043  -3.0023  -0.8700  -0.8658   0.5537   0.5654
     1.7547   1.7614   2.4099   2.4282   3.6631   3.7560   5.0374

          k = 0.1250 0.5052 0.0000 ( 38027 PWs)   bands (ev):

   -74.8760 -74.8758 -48.1522 -48.1515 -48.1512 -48.1499 -48.1482 -48.1478
   -48.1476 -48.1463 -48.1239 -48.1231 -48.1229 -48.1223 -48.1220 -48.1217
   -48.1211 -48.1204 -48.1055 -48.1048 -48.1048 -48.1034 -39.2597 -39.2590
   -39.1188 -39.1181 -39.0319 -39.0315 -13.6668 -13.6640 -13.2868 -13.2847
    -6.8752  -6.8722  -5.5866  -5.5843  -4.6200  -4.6179  -4.0442  -4.0412
    -3.2988  -3.2969  -3.1081  -3.1059  -0.9571  -0.9550   1.0109   1.0177
     1.8383   1.8409   2.6104   2.6225   3.6962   3.7233   4.9189

          k = 0.1250 0.5774 0.0000 ( 37968 PWs)   bands (ev):

   -74.8757 -74.8754 -48.1522 -48.1514 -48.1511 -48.1498 -48.1481 -48.1476
   -48.1474 -48.1462 -48.1239 -48.1232 -48.1229 -48.1223 -48.1221 -48.1217
   -48.1212 -48.1204 -48.1054 -48.1047 -48.1047 -48.1033 -39.2669 -39.2661
   -39.1216 -39.1209 -39.0302 -39.0299 -13.6220 -13.6192 -13.1793 -13.1772
    -7.0683  -7.0653  -5.5704  -5.5684  -4.7257  -4.7236  -4.0227  -4.0197
    -3.3186  -3.3168  -3.0764  -3.0744  -1.0086  -1.0069   1.3072   1.3090
     1.7472   1.7496   2.7522   2.7548   3.5678   3.5913   4.9370

          k = 0.1875 0.3248 0.0000 ( 37987 PWs)   bands (ev):

   -74.8788 -74.8786 -48.1520 -48.1513 -48.1513 -48.1500 -48.1495 -48.1489
   -48.1488 -48.1475 -48.1234 -48.1226 -48.1223 -48.1220 -48.1217 -48.1217
   -48.1208 -48.1203 -48.1061 -48.1054 -48.1053 -48.1040 -39.2002 -39.1996
   -39.1026 -39.1020 -39.0445 -39.0441 -14.1276 -14.1250 -13.8177 -13.8156
    -5.4184  -5.4149  -5.3965  -5.3939  -4.9803  -4.9759  -3.8300  -3.8271
    -3.3868  -3.3837  -2.5130  -2.5108  -0.6001  -0.5891  -0.0689  -0.0550
     1.4670   1.4885   2.1178   2.1264   3.3211   3.4731   4.9315

          k = 0.1875 0.3969 0.0000 ( 38014 PWs)   bands (ev):

   -74.8772 -74.8770 -48.1519 -48.1511 -48.1510 -48.1497 -48.1490 -48.1485
   -48.1484 -48.1471 -48.1236 -48.1229 -48.1225 -48.1222 -48.1219 -48.1218
   -48.1209 -48.1205 -48.1058 -48.1051 -48.1050 -48.1037 -39.2249 -39.2242
   -39.1210 -39.1204 -39.0374 -39.0370 -13.7848 -13.7823 -13.6378 -13.6355
    -5.9370  -5.9342  -5.5168  -5.5134  -4.6062  -4.6020  -4.1827  -4.1802
    -3.7310  -3.7283  -2.9159  -2.9148  -0.4331  -0.4263   0.0771   0.0881
     1.7877   1.7984   2.0306   2.0437   3.6952   3.8110   5.3878

          k = 0.1875 0.4691 0.0000 ( 38010 PWs)   bands (ev):

   -74.8760 -74.8758 -48.1517 -48.1510 -48.1507 -48.1494 -48.1487 -48.1482
   -48.1480 -48.1468 -48.1238 -48.1230 -48.1228 -48.1222 -48.1221 -48.1219
   -48.1211 -48.1205 -48.1055 -48.1048 -48.1048 -48.1035 -39.2428 -39.2421
   -39.1360 -39.1353 -39.0319 -39.0316 -13.5912 -13.5886 -13.3866 -13.3843
    -6.4518  -6.4489  -5.5673  -5.5645  -4.4351  -4.4327  -4.2369  -4.2339
    -3.9825  -3.9802  -3.2137  -3.2124  -0.5266  -0.5230   0.5200   0.5268
     1.8502   1.8534   2.1962   2.2120   3.8755   3.9197   5.2153

          k = 0.1875 0.5413 0.0000 ( 38010 PWs)   bands (ev):

   -74.8754 -74.8752 -48.1516 -48.1509 -48.1506 -48.1493 -48.1485 -48.1480
   -48.1478 -48.1466 -48.1238 -48.1230 -48.1230 -48.1223 -48.1222 -48.1219
   -48.1212 -48.1206 -48.1054 -48.1047 -48.1046 -48.1033 -39.2522 -39.2515
   -39.1443 -39.1436 -39.0290 -39.0286 -13.5127 -13.5100 -13.2029 -13.2007
    -6.7514  -6.7485  -5.5749  -5.5724  -4.5665  -4.5641  -4.1730  -4.1707
    -4.0603  -4.0585  -3.2666  -3.2650  -0.6345  -0.6324   0.9917   0.9946
     1.6201   1.6215   2.4763   2.4866   3.6866   3.7069   5.2390

          k = 0.2500 0.4330 0.0000 ( 38031 PWs)   bands (ev):

   -74.8760 -74.8758 -48.1515 -48.1507 -48.1505 -48.1492 -48.1489 -48.1484
   -48.1483 -48.1470 -48.1237 -48.1229 -48.1227 -48.1223 -48.1221 -48.1219
   -48.1211 -48.1206 -48.1055 -48.1048 -48.1048 -48.1035 -39.2340 -39.2333
   -39.1450 -39.1443 -39.0319 -39.0316 -13.5049 -13.5026 -13.4825 -13.4800
    -6.1978  -6.1951  -5.5644  -5.5613  -4.4169  -4.4147  -4.3824  -4.3799
    -4.1738  -4.1708  -3.2846  -3.2838  -0.0430  -0.0357   0.0078   0.0108
     1.8366   1.8428   2.0710   2.0859   3.9513   4.0065   5.3829

          k = 0.2500 0.5052 0.0000 ( 38019 PWs)   bands (ev):

   -74.8752 -74.8750 -48.1511 -48.1504 -48.1501 -48.1489 -48.1489 -48.1484
   -48.1482 -48.1470 -48.1237 -48.1230 -48.1229 -48.1225 -48.1222 -48.1220
   -48.1212 -48.1207 -48.1053 -48.1047 -48.1046 -48.1033 -39.2362 -39.2355
   -39.1647 -39.1641 -39.0283 -39.0280 -13.4057 -13.4032 -13.2681 -13.2657
    -6.3692  -6.3664  -5.5942  -5.5913  -4.8107  -4.8080  -4.3785  -4.3766
    -4.0486  -4.0465  -3.5476  -3.5465  -0.1528  -0.1499   0.4429   0.4450
     1.5598   1.5610   2.4058   2.4242   3.8574   3.8681   5.1127

          k = 0.2500 0.5774 0.0000 ( 38023 PWs)   bands (ev):

   -74.8749 -74.8747 -48.1510 -48.1502 -48.1499 -48.1489 -48.1487 -48.1485
   -48.1482 -48.1470 -48.1236 -48.1231 -48.1229 -48.1225 -48.1223 -48.1220
   -48.1212 -48.1207 -48.1053 -48.1046 -48.1046 -48.1033 -39.2358 -39.2351
   -39.1729 -39.1722 -39.0270 -39.0267 -13.3705 -13.3679 -13.1882 -13.1858
    -6.4272  -6.4244  -5.6013  -5.5985  -4.9789  -4.9761  -4.2137  -4.2124
    -4.2099  -4.2081  -3.5650  -3.5637  -0.2135  -0.2114   0.8012   0.8019
     1.2232   1.2249   2.6966   2.7044   3.6094   3.6214   5.0335

          k = 0.3125 0.5413 0.0000 ( 38095 PWs)   bands (ev):

   -74.8748 -74.8746 -48.1506 -48.1499 -48.1496 -48.1492 -48.1488 -48.1487
   -48.1481 -48.1474 -48.1235 -48.1232 -48.1228 -48.1227 -48.1224 -48.1219
   -48.1213 -48.1207 -48.1052 -48.1046 -48.1046 -48.1032 -39.2209 -39.2202
   -39.1921 -39.1914 -39.0263 -39.0260 -13.2832 -13.2807 -13.2211 -13.2186
    -6.1168  -6.1141  -5.6310  -5.6280  -5.4170  -5.4142  -4.2235  -4.2218
    -3.9277  -3.9260  -3.8967  -3.8955   0.2265   0.2296   0.4070   0.4085
     1.0751   1.0768   2.8969   2.9133   3.5333   3.5414   4.8377

     the Fermi energy is    -0.0111 ev

!    total energy              =   -3113.95978538 Ry
     total all-electron energy =    -83998.684349 Ry
     estimated scf accuracy    <       0.00000005 Ry
     smearing contrib. (-TS)   =       0.00044978 Ry
     internal energy E=F+TS    =   -3113.96023516 Ry

     The total energy is F=E-TS. E is the sum of the following terms:
     one-electron contribution =  -22568.27320149 Ry
     hartree contribution      =   11271.29039812 Ry
     xc contribution           =    -193.57567604 Ry
     ewald contribution        =   10137.91215695 Ry
     one-center paw contrib.   =   -1761.31391270 Ry

     convergence has been achieved in  29 iterations

     Writing all to output data dir ./tmp/cleave_017/wse2_cleave_017.save/ :
     XML data file, charge density, pseudopotentials, collected wavefunctions

     init_run     :     37.86s CPU     43.45s WALL (       1 calls)
     electrons    :   2290.24s CPU   2943.58s WALL (       1 calls)

     Called by init_run:
     wfcinit      :     22.69s CPU     26.66s WALL (       1 calls)
     potinit      :     13.34s CPU     14.61s WALL (       1 calls)
     hinit0       :      0.27s CPU      0.28s WALL (       1 calls)

     Called by electrons:
     c_bands      :   1839.87s CPU   2361.58s WALL (      30 calls)
     sum_band     :    282.02s CPU    360.52s WALL (      30 calls)
     v_of_rho     :     69.71s CPU     88.62s WALL (      30 calls)
     newd         :     29.45s CPU     42.18s WALL (      30 calls)
     PAW_pot      :      5.86s CPU      6.76s WALL (      30 calls)
     mix_rho      :     75.64s CPU     97.33s WALL (      30 calls)
     vdW_kernel   :     11.09s CPU     12.19s WALL (       1 calls)

     Called by c_bands:
     init_us_2    :      5.15s CPU      6.79s WALL (    1830 calls)
     cegterg      :   1797.73s CPU   2308.64s WALL (     900 calls)

     Called by *egterg:
     cdiaghg      :     28.54s CPU     38.00s WALL (    3778 calls)
     h_psi        :    938.72s CPU   1220.22s WALL (    3838 calls)
     s_psi        :    109.28s CPU    142.21s WALL (    3838 calls)
     g_psi        :      1.34s CPU      1.90s WALL (    2908 calls)

     Called by h_psi:
     h_psi:calbec :    214.88s CPU    275.35s WALL (    3838 calls)
     vloc_psi     :    591.57s CPU    768.32s WALL (    3838 calls)
                                        0.00s GPU  (    3838 calls)
     add_vuspsi   :    130.83s CPU    174.74s WALL (    3838 calls)

     General routines
     calbec       :    310.84s CPU    394.94s WALL (    4738 calls)
     fft          :     50.80s CPU     64.64s WALL (    1889 calls)
     ffts         :     24.16s CPU     30.87s WALL (    3504 calls)
     fftw         :    707.00s CPU    915.11s WALL (  269636 calls)
     interpolate  :      0.93s CPU      1.12s WALL (      30 calls)

     Parallel routines

     PWSCF        :  38m51.84s CPU  49m51.32s WALL


   This run was terminated on:  17:14:55  18Jun2026            

=------------------------------------------------------------------------------=
   JOB DONE.
=------------------------------------------------------------------------------=
Note: The following floating-point exceptions are signalling: IEEE_UNDERFLOW_FLAG IEEE_DENORMAL
Note: The following floating-point exceptions are signalling: IEEE_UNDERFLOW_FLAG IEEE_DENORMAL
Note: The following floating-point exceptions are signalling: IEEE_UNDERFLOW_FLAG IEEE_DENORMAL
Note: The following floating-point exceptions are signalling: IEEE_UNDERFLOW_FLAG IEEE_DENORMAL
Note: The following floating-point exceptions are signalling: IEEE_UNDERFLOW_FLAG IEEE_DENORMAL
Note: The following floating-point exceptions are signalling: IEEE_UNDERFLOW_FLAG IEEE_DENORMAL
Note: The following floating-point exceptions are signalling: IEEE_UNDERFLOW_FLAG IEEE_DENORMAL
Note: The following floating-point exceptions are signalling: IEEE_UNDERFLOW_FLAG IEEE_DENORMAL
Note: The following floating-point exceptions are signalling: IEEE_UNDERFLOW_FLAG IEEE_DENORMAL
Note: The following floating-point exceptions are signalling: IEEE_UNDERFLOW_FLAG IEEE_DENORMAL
Note: The following floating-point exceptions are signalling: IEEE_UNDERFLOW_FLAG IEEE_DENORMAL
Note: The following floating-point exceptions are signalling: IEEE_UNDERFLOW_FLAG IEEE_DENORMAL
