
     Program PWSCF v.7.5 starts on 18Jun2026 at 13: 4:54 

     This program is part of the open-source Quantum ESPRESSO suite
     for quantum simulation of materials; please cite
         "P. Giannozzi et al., J. Phys.:Condens. Matter 21 395502 (2009);
         "P. Giannozzi et al., J. Phys.:Condens. Matter 29 465901 (2017);
         "P. Giannozzi et al., J. Chem. Phys. 152 154105 (2020);
          URL http://www.quantum-espresso.org", 
     in publications or presentations arising from this work. More details at
     http://www.quantum-espresso.org/quote

     Parallel version (MPI), running on    12 processors

     MPI processes distributed on     1 nodes
     33449 MiB available memory on the printing compute node when the environment starts

     Waiting for input...
     Reading input from standard input

     Current dimensions of program PWSCF are:
     Max number of different atomic species (ntypx) = 10
     Max number of k-points (npk) =  40000
     Max angular momentum in pseudopotentials (lmaxx) =  4
     file W.pbe-spn-kjpaw_psl.1.0.0.UPF: wavefunction(s)  6S 5P 5D renormalized
     file Se.pbe-dn-kjpaw_psl.1.0.0.UPF: wavefunction(s)  4S 4P 3D renormalized

     IMPORTANT: XC functional enforced from input :
     Exchange-correlation= VDW-DF2-B86R
                           (   1   4  26   0   2   0   0)
     Any further DFT definition will be discarded
     Please, verify this is what you really want


     R & G space division:  proc/nbgrp/npool/nimage =      12
     Subspace diagonalization in iterative solution of the eigenvalue problem:
     a serial algorithm will be used


     Parallelization info
     --------------------
     sticks:   dense  smooth     PW     G-vecs:    dense   smooth      PW
     Min         139      70     20                71489    25322    3895
     Max         140      71     22                71558    25395    3945
     Sum        1675     847    253               858263   304337   46813

     Using Slab Decomposition



     bravais-lattice index     =            4
     lattice parameter (alat)  =       6.1983  a.u.
     unit-cell volume          =    3143.7277 (a.u.)^3
     number of atoms/cell      =            6
     number of atomic types    =            2
     number of electrons       =        92.00
     number of Kohn-Sham states=           55
     kinetic-energy cutoff     =      80.0000  Ry
     charge density cutoff     =     640.0000  Ry
     scf convergence threshold =      1.0E-07
     mixing beta               =       0.1000
     number of iterations used =           12  local-TF  mixing
     Exchange-correlation= VDW-DF2-B86R
                           (   1   4  26   0   2   0   0)

     celldm(1)=   6.198302  celldm(2)=   0.000000  celldm(3)=  15.243902
     celldm(4)=   0.000000  celldm(5)=   0.000000  celldm(6)=   0.000000

     crystal axes: (cart. coord. in units of alat)
               a(1) = (   1.000000   0.000000   0.000000 )  
               a(2) = (  -0.500000   0.866025   0.000000 )  
               a(3) = (   0.000000   0.000000  15.243902 )  

     reciprocal axes: (cart. coord. in units 2 pi/alat)
               b(1) = (  1.000000  0.577350 -0.000000 )  
               b(2) = (  0.000000  1.154701  0.000000 )  
               b(3) = (  0.000000 -0.000000  0.065600 )  


     PseudoPot. # 1 for W  read from file:
     ./pseudo/W.pbe-spn-kjpaw_psl.1.0.0.UPF
     MD5 check sum: 03c3df5b60893f488392c7401945500a
     Pseudo is Projector augmented-wave + core cor, Zval = 14.0
     Generated using &quot;atomic&quot; code by A. Dal Corso  v.6.2.2
     Shape of augmentation charge: PSQ
     Using radial grid of 1273 points,  6 beta functions with: 
                l(1) =   0
                l(2) =   0
                l(3) =   1
                l(4) =   1
                l(5) =   2
                l(6) =   2
     Q(r) pseudized with 0 coefficients 


     PseudoPot. # 2 for Se read from file:
     ./pseudo/Se.pbe-dn-kjpaw_psl.1.0.0.UPF
     MD5 check sum: ac240dd2bae32a30e0bf3a38df9c8785
     Pseudo is Projector augmented-wave + core cor, Zval = 16.0
     Generated using &quot;atomic&quot; code by A. Dal Corso  v.6.3
     Shape of augmentation charge: PSQ
     Using radial grid of 1211 points,  6 beta functions with: 
                l(1) =   0
                l(2) =   0
                l(3) =   1
                l(4) =   1
                l(5) =   2
                l(6) =   2
     Q(r) pseudized with 0 coefficients 


     atomic species   valence    mass     pseudopotential
     W                14.00   183.84000     W ( 1.00)
     Se               16.00    78.96000     Se( 1.00)

      6 Sym. Ops. (no inversion) found



   Cartesian axes

     site n.     atom                  positions (alat units)
         1        Se     tau(   1) = (  -0.0000005   0.5773506   6.1149390  )
         2        W      tau(   2) = (   0.0000000   0.0000000   6.6383232  )
         3        Se     tau(   3) = (   0.5000005   0.2886748   7.1618445  )
         4        Se     tau(   4) = (  -0.0000005   0.5773506   8.2035823  )
         5        W      tau(   5) = (   0.5000005   0.2886748   8.7268293  )
         6        Se     tau(   6) = (   0.0000000   0.0000000   9.2509146  )

     number of k points=    30  Methfessel-Paxton smearing, width (Ry)=  0.0200
                       cart. coord. in units 2pi/alat
        k(    1) = (   0.0000000   0.0000000   0.0000000), wk =   0.0078125
        k(    2) = (   0.0000000   0.0721688   0.0000000), wk =   0.0468750
        k(    3) = (   0.0000000   0.1443376   0.0000000), wk =   0.0468750
        k(    4) = (   0.0000000   0.2165064   0.0000000), wk =   0.0468750
        k(    5) = (   0.0000000   0.2886751   0.0000000), wk =   0.0468750
        k(    6) = (   0.0000000   0.3608439   0.0000000), wk =   0.0468750
        k(    7) = (   0.0000000   0.4330127   0.0000000), wk =   0.0468750
        k(    8) = (   0.0000000   0.5051815   0.0000000), wk =   0.0468750
        k(    9) = (   0.0000000  -0.5773503   0.0000000), wk =   0.0234375
        k(   10) = (   0.0625000   0.1082532   0.0000000), wk =   0.0468750
        k(   11) = (   0.0625000   0.1804220   0.0000000), wk =   0.0937500
        k(   12) = (   0.0625000   0.2525907   0.0000000), wk =   0.0937500
        k(   13) = (   0.0625000   0.3247595   0.0000000), wk =   0.0937500
        k(   14) = (   0.0625000   0.3969283   0.0000000), wk =   0.0937500
        k(   15) = (   0.0625000   0.4690971   0.0000000), wk =   0.0937500
        k(   16) = (   0.0625000   0.5412659   0.0000000), wk =   0.0937500
        k(   17) = (   0.1250000   0.2165064   0.0000000), wk =   0.0468750
        k(   18) = (   0.1250000   0.2886751   0.0000000), wk =   0.0937500
        k(   19) = (   0.1250000   0.3608439   0.0000000), wk =   0.0937500
        k(   20) = (   0.1250000   0.4330127   0.0000000), wk =   0.0937500
        k(   21) = (   0.1250000   0.5051815   0.0000000), wk =   0.0937500
        k(   22) = (   0.1250000   0.5773503   0.0000000), wk =   0.0468750
        k(   23) = (   0.1875000   0.3247595   0.0000000), wk =   0.0468750
        k(   24) = (   0.1875000   0.3969283   0.0000000), wk =   0.0937500
        k(   25) = (   0.1875000   0.4690971   0.0000000), wk =   0.0937500
        k(   26) = (   0.1875000   0.5412659   0.0000000), wk =   0.0937500
        k(   27) = (   0.2500000   0.4330127   0.0000000), wk =   0.0468750
        k(   28) = (   0.2500000   0.5051815   0.0000000), wk =   0.0937500
        k(   29) = (   0.2500000   0.5773503   0.0000000), wk =   0.0468750
        k(   30) = (   0.3125000   0.5412659   0.0000000), wk =   0.0468750

     Dense  grid:   858263 G-vectors     FFT dimensions: (  50,  50, 768)

     Smooth grid:   304337 G-vectors     FFT dimensions: (  36,  36, 540)

     Estimated max dynamical RAM per process >     350.14 MB

     Estimated total dynamical RAM >       4.10 GB

     Initial potential from superposition of free atoms

     starting charge      91.9986, renormalised to      92.0000

     negative rho (up, down):  1.824E-04 0.000E+00


     %%%%%%%%%%%%%%%%%%%%%%%%%%%%%%%%%%%%%%%%%%%%%%%%%%%%%%%%%%%%%%%%%%%%%%%%
     %                                                                      %
     % You are using vdW-DF, which was implemented by the Thonhauser group. %
     % Please cite the following two papers that made this development      %
     % possible and the two reviews that describe the various versions:     %
     %                                                                      %
     %   T. Thonhauser et al., PRL 115, 136402 (2015).                      %
     %   T. Thonhauser et al., PRB 76, 125112 (2007).                       %
     %   K. Berland et al., Rep. Prog. Phys. 78, 066501 (2015).             %
     %   D.C. Langreth et al., J. Phys.: Condens. Matter 21, 084203 (2009). %
     %                                                                      %
     % If you are calculating stress with vdW-DF, please also cite:         %
     %                                                                      %
     %   R. Sabatini et al., J. Phys.: Condens. Matter 24, 424209 (2012).   %
     %                                                                      %
     %%%%%%%%%%%%%%%%%%%%%%%%%%%%%%%%%%%%%%%%%%%%%%%%%%%%%%%%%%%%%%%%%%%%%%%%

     %%%%%%%%%%%%%%%%%%%%%%%%%%%%%%%%%%%%%%%%%%%%%%%%%%%%%%%%%%%%%%%%%%%%%%%%
     %                                                                      %
     %  vdW-DF NEWS:                                                        %
     %                                                                      %
     %  * vdW-DF3 is now available. DOI: 10.1021/acs.jctc.0c00471           %
     %    use with input_dft = 'vdW-DF3-opt1' or 'vdW-DF3-opt2'             %
     %                                                                      %
     %  * Unscreened and range-separated hybrid vdW-DF-cx functionals       %
     %    DOI: 10.1063/1.4986522 and 10.1088/1361-648X/ac2ad2               %
     %    use with input_dft = 'vdW-DF-cx0'    and 'vdW-DF-ahcx'            %
     %  * Unscreened and range-separated hybrid vdW-DF2-b86r functionals    %
     %    DOI: 10.1063/1.4986522 and DOI: 10.1103/PhysRevX.12.041003        %
     %    use with input_dft = 'vdW-DF2-br0' and 'vdW-DF2-ahbr'             %
     %                                                                      %
     %%%%%%%%%%%%%%%%%%%%%%%%%%%%%%%%%%%%%%%%%%%%%%%%%%%%%%%%%%%%%%%%%%%%%%%%


     Starting wfcs are   62 randomized atomic wfcs
     Checking if some PAW data can be deallocated... 

     total cpu time spent up to now is       28.8 secs

     per-process dynamical memory:   142.9 Mb

     Self-consistent Calculation

     iteration #  1     ecut=    80.00 Ry     beta= 0.10
     Davidson diagonalization with overlap
     ethr =  1.00E-02,  avg # of iterations =  4.0

     Threshold (ethr) on eigenvalues was too large:
     Diagonalizing with lowered threshold

     Davidson diagonalization with overlap
     ethr =  1.04E-04,  avg # of iterations =  5.6

     negative rho (up, down):  1.061E-04 0.000E+00

     total cpu time spent up to now is      126.2 secs

     total energy              =   -3114.00633132 Ry
     estimated scf accuracy    <       0.12381515 Ry

     iteration #  2     ecut=    80.00 Ry     beta= 0.10
     Davidson diagonalization with overlap
     ethr =  1.35E-04,  avg # of iterations =  1.0

     negative rho (up, down):  1.096E-04 0.000E+00

     total cpu time spent up to now is      163.6 secs

     total energy              =   -3113.96142234 Ry
     estimated scf accuracy    <       0.11194532 Ry

     iteration #  3     ecut=    80.00 Ry     beta= 0.10
     Davidson diagonalization with overlap
     ethr =  1.22E-04,  avg # of iterations =  3.6

     negative rho (up, down):  4.852E-05 0.000E+00

     total cpu time spent up to now is      214.4 secs

     total energy              =   -3113.97675992 Ry
     estimated scf accuracy    <       0.01997229 Ry

     iteration #  4     ecut=    80.00 Ry     beta= 0.10
     Davidson diagonalization with overlap
     ethr =  2.17E-05,  avg # of iterations =  3.3

     negative rho (up, down):  7.264E-06 0.000E+00

     total cpu time spent up to now is      261.1 secs

     total energy              =   -3113.97356470 Ry
     estimated scf accuracy    <       0.01742026 Ry

     iteration #  5     ecut=    80.00 Ry     beta= 0.10
     Davidson diagonalization with overlap
     ethr =  1.89E-05,  avg # of iterations =  3.1

     negative rho (up, down):  5.584E-06 0.000E+00

     total cpu time spent up to now is      308.8 secs

     total energy              =   -3113.97496806 Ry
     estimated scf accuracy    <       0.00277542 Ry

     iteration #  6     ecut=    80.00 Ry     beta= 0.10
     Davidson diagonalization with overlap
     c_bands:  1 eigenvalues not converged
     ethr =  3.02E-06,  avg # of iterations =  6.5

     negative rho (up, down):  3.239E-07 0.000E+00

     total cpu time spent up to now is      356.3 secs

     total energy              =   -3113.97434387 Ry
     estimated scf accuracy    <       0.00251866 Ry

     iteration #  7     ecut=    80.00 Ry     beta= 0.10
     Davidson diagonalization with overlap
     ethr =  2.74E-06,  avg # of iterations =  5.1

     negative rho (up, down):  2.519E-07 0.000E+00

     total cpu time spent up to now is      405.4 secs

     total energy              =   -3113.97438439 Ry
     estimated scf accuracy    <       0.00200076 Ry

     iteration #  8     ecut=    80.00 Ry     beta= 0.10
     Davidson diagonalization with overlap
     ethr =  2.17E-06,  avg # of iterations =  1.8

     negative rho (up, down):  5.118E-07 0.000E+00

     total cpu time spent up to now is      447.7 secs

     total energy              =   -3113.97421925 Ry
     estimated scf accuracy    <       0.00116126 Ry

     iteration #  9     ecut=    80.00 Ry     beta= 0.10
     Davidson diagonalization with overlap
     ethr =  1.26E-06,  avg # of iterations =  4.5

     negative rho (up, down):  4.931E-07 0.000E+00

     total cpu time spent up to now is      497.2 secs

     total energy              =   -3113.97425890 Ry
     estimated scf accuracy    <       0.00065752 Ry

     iteration # 10     ecut=    80.00 Ry     beta= 0.10
     Davidson diagonalization with overlap
     ethr =  7.15E-07,  avg # of iterations =  1.4

     negative rho (up, down):  2.735E-08 0.000E+00

     total cpu time spent up to now is      539.0 secs

     total energy              =   -3113.97422127 Ry
     estimated scf accuracy    <       0.00053140 Ry

     iteration # 11     ecut=    80.00 Ry     beta= 0.10
     Davidson diagonalization with overlap
     ethr =  5.78E-07,  avg # of iterations =  1.5

     negative rho (up, down):  5.719E-06 0.000E+00

     total cpu time spent up to now is      579.9 secs

     total energy              =   -3113.97420210 Ry
     estimated scf accuracy    <       0.00039023 Ry

     iteration # 12     ecut=    80.00 Ry     beta= 0.10
     Davidson diagonalization with overlap
     ethr =  4.24E-07,  avg # of iterations =  4.1

     negative rho (up, down):  2.437E-04 0.000E+00

     total cpu time spent up to now is      623.1 secs

     total energy              =   -3113.97417039 Ry
     estimated scf accuracy    <       0.00039262 Ry

     iteration # 13     ecut=    80.00 Ry     beta= 0.10
     Davidson diagonalization with overlap
     ethr =  4.24E-07,  avg # of iterations =  3.0

     negative rho (up, down):  1.032E-03 0.000E+00

     total cpu time spent up to now is      666.5 secs

     total energy              =   -3113.97419342 Ry
     estimated scf accuracy    <       0.00024115 Ry

     iteration # 14     ecut=    80.00 Ry     beta= 0.10
     Davidson diagonalization with overlap
     ethr =  2.62E-07,  avg # of iterations =  3.4

     negative rho (up, down):  2.377E-03 0.000E+00

     total cpu time spent up to now is      709.0 secs

     total energy              =   -3113.97418823 Ry
     estimated scf accuracy    <       0.00022296 Ry

     iteration # 15     ecut=    80.00 Ry     beta= 0.10
     Davidson diagonalization with overlap
     ethr =  2.42E-07,  avg # of iterations =  4.2

     negative rho (up, down):  1.841E-03 0.000E+00

     total cpu time spent up to now is      759.2 secs

     total energy              =   -3113.97422253 Ry
     estimated scf accuracy    <       0.00022721 Ry

     iteration # 16     ecut=    80.00 Ry     beta= 0.10
     Davidson diagonalization with overlap
     ethr =  2.42E-07,  avg # of iterations =  1.7

     negative rho (up, down):  4.399E-03 0.000E+00

     total cpu time spent up to now is      799.3 secs

     total energy              =   -3113.97416595 Ry
     estimated scf accuracy    <       0.00025175 Ry

     iteration # 17     ecut=    80.00 Ry     beta= 0.10
     Davidson diagonalization with overlap
     ethr =  2.42E-07,  avg # of iterations =  4.6

     negative rho (up, down):  3.935E-03 0.000E+00

     total cpu time spent up to now is      843.3 secs

     total energy              =   -3113.97412686 Ry
     estimated scf accuracy    <       0.00019940 Ry

     iteration # 18     ecut=    80.00 Ry     beta= 0.10
     Davidson diagonalization with overlap
     ethr =  2.17E-07,  avg # of iterations =  2.1

     negative rho (up, down):  3.819E-03 0.000E+00

     total cpu time spent up to now is      883.9 secs

     total energy              =   -3113.97414015 Ry
     estimated scf accuracy    <       0.00011970 Ry

     iteration # 19     ecut=    80.00 Ry     beta= 0.10
     Davidson diagonalization with overlap
     ethr =  1.30E-07,  avg # of iterations =  1.7

     negative rho (up, down):  3.496E-03 0.000E+00

     total cpu time spent up to now is      923.3 secs

     total energy              =   -3113.97409447 Ry
     estimated scf accuracy    <       0.00011508 Ry

     iteration # 20     ecut=    80.00 Ry     beta= 0.10
     Davidson diagonalization with overlap
     ethr =  1.25E-07,  avg # of iterations =  4.2

     negative rho (up, down):  3.114E-03 0.000E+00

     total cpu time spent up to now is      972.0 secs

     total energy              =   -3113.97411725 Ry
     estimated scf accuracy    <       0.00005981 Ry

     iteration # 21     ecut=    80.00 Ry     beta= 0.10
     Davidson diagonalization with overlap
     ethr =  6.50E-08,  avg # of iterations =  3.6

     negative rho (up, down):  2.230E-03 0.000E+00

     total cpu time spent up to now is     1017.5 secs

     total energy              =   -3113.97411596 Ry
     estimated scf accuracy    <       0.00003594 Ry

     iteration # 22     ecut=    80.00 Ry     beta= 0.10
     Davidson diagonalization with overlap
     ethr =  3.91E-08,  avg # of iterations =  4.0

     negative rho (up, down):  2.115E-03 0.000E+00

     total cpu time spent up to now is     1065.4 secs

     total energy              =   -3113.97411545 Ry
     estimated scf accuracy    <       0.00001980 Ry

     iteration # 23     ecut=    80.00 Ry     beta= 0.10
     Davidson diagonalization with overlap
     ethr =  2.15E-08,  avg # of iterations =  3.4

     negative rho (up, down):  1.180E-03 0.000E+00

     total cpu time spent up to now is     1109.3 secs

     total energy              =   -3113.97411137 Ry
     estimated scf accuracy    <       0.00001477 Ry

     iteration # 24     ecut=    80.00 Ry     beta= 0.10
     Davidson diagonalization with overlap
     ethr =  1.61E-08,  avg # of iterations =  3.8

     negative rho (up, down):  9.062E-04 0.000E+00

     total cpu time spent up to now is     1161.5 secs

     total energy              =   -3113.97411651 Ry
     estimated scf accuracy    <       0.00001565 Ry

     iteration # 25     ecut=    80.00 Ry     beta= 0.10
     Davidson diagonalization with overlap
     ethr =  1.61E-08,  avg # of iterations =  3.3

     negative rho (up, down):  8.503E-04 0.000E+00

     total cpu time spent up to now is     1209.3 secs

     total energy              =   -3113.97411906 Ry
     estimated scf accuracy    <       0.00000101 Ry

     iteration # 26     ecut=    80.00 Ry     beta= 0.10
     Davidson diagonalization with overlap
     ethr =  1.10E-09,  avg # of iterations =  1.9

     negative rho (up, down):  3.009E-04 0.000E+00

     total cpu time spent up to now is     1254.0 secs

     total energy              =   -3113.97412279 Ry
     estimated scf accuracy    <       0.00000082 Ry

     iteration # 27     ecut=    80.00 Ry     beta= 0.10
     Davidson diagonalization with overlap
     ethr =  8.95E-10,  avg # of iterations =  4.0

     negative rho (up, down):  2.789E-04 0.000E+00

     total cpu time spent up to now is     1305.4 secs

     total energy              =   -3113.97412249 Ry
     estimated scf accuracy    <       0.00000126 Ry

     iteration # 28     ecut=    80.00 Ry     beta= 0.10
     Davidson diagonalization with overlap
     ethr =  8.95E-10,  avg # of iterations =  2.0

     negative rho (up, down):  1.806E-04 0.000E+00

     total cpu time spent up to now is     1350.5 secs

     End of self-consistent calculation

          k = 0.0000 0.0000 0.0000 ( 38015 PWs)   bands (ev):

   -74.8868 -74.8798 -48.1664 -48.1664 -48.1628 -48.1628 -48.1580 -48.1580
   -48.1502 -48.1502 -48.1390 -48.1390 -48.1322 -48.1322 -48.1312 -48.1312
   -48.1262 -48.1199 -48.1188 -48.1188 -48.1167 -48.1044 -39.0806 -39.0775
   -39.0451 -39.0450 -39.0351 -39.0351 -15.5659 -15.4878 -14.5152 -14.3965
    -7.1971  -6.8176  -3.7820  -3.3638  -3.3638  -3.3484  -3.3484  -2.9002
    -1.4934  -0.9698  -0.6973  -0.6973  -0.6871  -0.6871   0.1767   0.1767
     0.2153   0.2153   3.3678   3.3679   3.4176   3.4280   3.4280

          k = 0.0000 0.0722 0.0000 ( 37975 PWs)   bands (ev):

   -74.8864 -74.8794 -48.1664 -48.1662 -48.1628 -48.1626 -48.1580 -48.1578
   -48.1502 -48.1500 -48.1391 -48.1391 -48.1323 -48.1322 -48.1313 -48.1312
   -48.1261 -48.1198 -48.1188 -48.1188 -48.1167 -48.1043 -39.0788 -39.0757
   -39.0541 -39.0472 -39.0441 -39.0372 -15.5048 -15.4267 -14.4861 -14.3692
    -7.1152  -6.7360  -4.0806  -3.7017  -3.3294  -3.3137  -3.1250  -2.6477
    -1.5273  -1.2130  -1.0005  -0.9301  -0.9150  -0.8698   0.1740   0.2474
     0.3804   0.4168   3.0454   3.0962   3.3211   3.3913   3.5628

          k = 0.0000 0.1443 0.0000 ( 37895 PWs)   bands (ev):

   -74.8853 -74.8783 -48.1664 -48.1657 -48.1628 -48.1621 -48.1579 -48.1573
   -48.1502 -48.1495 -48.1393 -48.1391 -48.1325 -48.1323 -48.1315 -48.1313
   -48.1258 -48.1196 -48.1190 -48.1189 -48.1164 -48.1041 -39.0800 -39.0735
   -39.0711 -39.0694 -39.0532 -39.0432 -15.3258 -15.2479 -14.4007 -14.2896
    -6.8768  -6.4994  -4.5289  -4.2070  -3.2475  -3.2306  -2.9107  -2.4965
    -2.0647  -2.0073  -1.3178  -1.3128  -1.2965  -0.9809   0.1353   0.3453
     0.6824   0.7242   2.4865   2.5796   3.2360   3.3235   3.8586

          k = 0.0000 0.2165 0.0000 ( 37851 PWs)   bands (ev):

   -74.8836 -74.8766 -48.1664 -48.1649 -48.1628 -48.1613 -48.1579 -48.1565
   -48.1502 -48.1487 -48.1396 -48.1392 -48.1328 -48.1324 -48.1317 -48.1314
   -48.1255 -48.1194 -48.1191 -48.1189 -48.1160 -48.1037 -39.1183 -39.1083
   -39.0658 -39.0628 -39.0622 -39.0522 -15.0422 -14.9652 -14.2657 -14.1640
    -6.5096  -6.1416  -4.9438  -4.6710  -3.3300  -3.2932  -3.1868  -3.1672
    -2.6307  -2.2682  -1.6137  -1.5868  -1.4203  -1.2042   0.1320   0.4277
     0.8813   0.9317   2.1227   2.4119   3.2015   3.3048   4.2543

          k = 0.0000 0.2887 0.0000 ( 37919 PWs)   bands (ev):

   -74.8816 -74.8746 -48.1664 -48.1641 -48.1628 -48.1604 -48.1580 -48.1556
   -48.1502 -48.1478 -48.1399 -48.1393 -48.1331 -48.1325 -48.1321 -48.1315
   -48.1250 -48.1197 -48.1190 -48.1187 -48.1156 -48.1033 -39.1632 -39.1532
   -39.0729 -39.0629 -39.0567 -39.0537 -14.6804 -14.6059 -14.0901 -14.0010
    -6.1046  -5.7851  -5.2341  -4.9967  -4.3846  -4.3442  -3.2353  -3.2119
    -2.7744  -2.4865  -1.7163  -1.6924  -1.6814  -1.5684   0.2522   0.5921
     0.9862   1.0384   2.2000   2.6785   3.2376   3.3582   4.7396

          k = 0.0000 0.3608 0.0000 ( 37933 PWs)   bands (ev):

   -74.8796 -74.8725 -48.1664 -48.1632 -48.1628 -48.1595 -48.1580 -48.1548
   -48.1502 -48.1470 -48.1403 -48.1394 -48.1334 -48.1326 -48.1324 -48.1316
   -48.1246 -48.1200 -48.1192 -48.1183 -48.1151 -48.1028 -39.2078 -39.1977
   -39.0835 -39.0735 -39.0476 -39.0446 -14.2928 -14.2245 -13.8765 -13.8022
    -6.0028  -5.8825  -5.4250  -5.2972  -5.0407  -4.7814  -3.3865  -3.3602
    -3.0820  -2.8763  -1.9989  -1.8782  -1.6640  -1.6160   0.5819   0.9103
     1.0864   1.1289   2.5995   3.1598   3.3010   3.4409   4.8498

          k = 0.0000 0.4330 0.0000 ( 37998 PWs)   bands (ev):

   -74.8779 -74.8708 -48.1665 -48.1628 -48.1625 -48.1588 -48.1581 -48.1540
   -48.1502 -48.1462 -48.1406 -48.1395 -48.1337 -48.1327 -48.1327 -48.1317
   -48.1242 -48.1203 -48.1192 -48.1179 -48.1148 -48.1025 -39.2453 -39.2352
   -39.0924 -39.0824 -39.0398 -39.0368 -13.9804 -13.9252 -13.6068 -13.5464
    -6.5609  -6.5098  -5.7314  -5.5390  -4.8000  -4.6224  -3.5524  -3.5242
    -3.3819  -3.1581  -2.1822  -2.0764  -1.5784  -1.5147   1.0622   1.2361
     1.2622   1.3375   3.0932   3.3530   3.5062   3.5106   4.4464

          k = 0.0000 0.5052 0.0000 ( 38048 PWs)   bands (ev):

   -74.8767 -74.8697 -48.1665 -48.1628 -48.1620 -48.1583 -48.1581 -48.1536
   -48.1502 -48.1457 -48.1408 -48.1396 -48.1339 -48.1329 -48.1327 -48.1317
   -48.1240 -48.1205 -48.1193 -48.1177 -48.1145 -48.1022 -39.2702 -39.2601
   -39.0984 -39.0884 -39.0346 -39.0316 -13.8089 -13.7698 -13.3322 -13.2864
    -7.1216  -7.0764  -5.7244  -5.5777  -4.8481  -4.7227  -3.6698  -3.6406
    -3.3367  -3.0844  -2.2884  -2.2116  -1.5245  -1.4487   1.3937   1.4077
     1.5654   1.7579   3.2640   3.3823   3.5522   3.5612   4.3437

          k = 0.0000-0.5774 0.0000 ( 38024 PWs)   bands (ev):

   -74.8763 -74.8693 -48.1665 -48.1628 -48.1618 -48.1582 -48.1581 -48.1534
   -48.1502 -48.1456 -48.1409 -48.1396 -48.1340 -48.1329 -48.1327 -48.1317
   -48.1239 -48.1205 -48.1193 -48.1176 -48.1145 -48.1021 -39.2789 -39.2688
   -39.1005 -39.0905 -39.0328 -39.0298 -13.7545 -13.7234 -13.2134 -13.1770
    -7.3307  -7.2933  -5.6544  -5.5835  -4.9666  -4.8375  -3.7113  -3.6819
    -3.2102  -2.9894  -2.3375  -2.2693  -1.5082  -1.4280   1.4619   1.4745
     1.8227   1.9327   3.3159   3.3913   3.5405   3.5656   4.0528

          k = 0.0625 0.1083 0.0000 ( 37895 PWs)   bands (ev):

   -74.8857 -74.8786 -48.1664 -48.1659 -48.1627 -48.1622 -48.1579 -48.1574
   -48.1501 -48.1497 -48.1392 -48.1391 -48.1324 -48.1323 -48.1314 -48.1313
   -48.1259 -48.1196 -48.1190 -48.1188 -48.1165 -48.1042 -39.0753 -39.0723
   -39.0713 -39.0613 -39.0515 -39.0415 -15.3847 -15.3068 -14.4288 -14.3158
    -6.9547  -6.5764  -4.4070  -4.0695  -3.2787  -3.2631  -2.9440  -2.4792
    -1.8026  -1.7622  -1.3280  -1.3135  -1.2060  -0.8773   0.2179   0.3839
     0.5332   0.5696   2.7246   2.7532   3.1946   3.2500   3.7731

          k = 0.0625 0.1804 0.0000 ( 37885 PWs)   bands (ev):

   -74.8842 -74.8772 -48.1663 -48.1653 -48.1627 -48.1616 -48.1579 -48.1568
   -48.1501 -48.1490 -48.1395 -48.1392 -48.1326 -48.1323 -48.1316 -48.1313
   -48.1256 -48.1193 -48.1192 -48.1189 -48.1162 -48.1039 -39.1026 -39.0926
   -39.0690 -39.0659 -39.0596 -39.0497 -15.1530 -15.0756 -14.3188 -14.2133
    -6.6483  -6.2745  -4.8014  -4.5110  -3.2730  -3.2554  -2.9309  -2.7427
    -2.5301  -2.3670  -1.6882  -1.6326  -1.2490  -0.9472   0.2573   0.4434
     0.6593   0.7065   2.4031   2.5686   3.0371   3.1145   4.1088

          k = 0.0625 0.2526 0.0000 ( 37916 PWs)   bands (ev):

   -74.8824 -74.8754 -48.1663 -48.1645 -48.1627 -48.1608 -48.1579 -48.1560
   -48.1501 -48.1482 -48.1398 -48.1393 -48.1330 -48.1324 -48.1319 -48.1314
   -48.1252 -48.1195 -48.1191 -48.1189 -48.1158 -48.1035 -39.1433 -39.1333
   -39.0707 -39.0610 -39.0602 -39.0569 -14.8285 -14.7526 -14.1643 -14.0700
    -6.2414  -5.8874  -5.1427  -4.8935  -3.9247  -3.8983  -3.2238  -3.1910
    -2.7156  -2.4954  -1.9453  -1.8953  -1.2882  -1.1031   0.1894   0.4054
     0.8417   0.9562   2.2942   2.5705   3.0671   3.1479   4.5497

          k = 0.0625 0.3248 0.0000 ( 37964 PWs)   bands (ev):

   -74.8804 -74.8734 -48.1663 -48.1636 -48.1627 -48.1600 -48.1579 -48.1552
   -48.1501 -48.1474 -48.1401 -48.1394 -48.1333 -48.1326 -48.1323 -48.1316
   -48.1248 -48.1199 -48.1191 -48.1185 -48.1153 -48.1030 -39.1870 -39.1769
   -39.0823 -39.0723 -39.0512 -39.0482 -14.4472 -14.3754 -13.9738 -13.8934
    -5.9196  -5.6798  -5.2974  -5.1054  -4.8734  -4.7588  -3.4574  -3.4226
    -2.7995  -2.6445  -2.2571  -2.2435  -1.3207  -1.2095   0.2780   0.5278
     1.0936   1.1949   2.4216   2.7160   3.2215   3.3607   5.0445

          k = 0.0625 0.3969 0.0000 ( 37981 PWs)   bands (ev):

   -74.8785 -74.8715 -48.1664 -48.1629 -48.1627 -48.1592 -48.1579 -48.1544
   -48.1501 -48.1466 -48.1405 -48.1395 -48.1336 -48.1326 -48.1326 -48.1317
   -48.1244 -48.1202 -48.1192 -48.1181 -48.1149 -48.1026 -39.2271 -39.2170
   -39.0930 -39.0830 -39.0428 -39.0398 -14.0846 -14.0222 -13.7394 -13.6738
    -6.1747  -6.1315  -5.6349  -5.4540  -4.9042  -4.6536  -3.7156  -3.6624
    -3.0414  -2.9358  -2.4974  -2.4589  -1.2944  -1.2338   0.5792   0.7935
     1.3623   1.4526   2.7097   2.8914   3.4083   3.6567   4.7598

          k = 0.0625 0.4691 0.0000 ( 38057 PWs)   bands (ev):

   -74.8771 -74.8701 -48.1664 -48.1627 -48.1623 -48.1586 -48.1579 -48.1539
   -48.1501 -48.1460 -48.1407 -48.1396 -48.1338 -48.1328 -48.1327 -48.1317
   -48.1241 -48.1204 -48.1193 -48.1178 -48.1146 -48.1023 -39.2575 -39.2474
   -39.1012 -39.0912 -39.0363 -39.0333 -13.8468 -13.8004 -13.4538 -13.4018
    -6.8251  -6.7757  -5.7306  -5.5609  -4.7385  -4.6103  -3.8419  -3.7710
    -3.2249  -3.0838  -2.5953  -2.5586  -1.2821  -1.2619   0.9870   1.1277
     1.6282   1.7216   2.9500   3.0500   3.5147   3.7066   4.5923

          k = 0.0625 0.5413 0.0000 ( 38034 PWs)   bands (ev):

   -74.8763 -74.8693 -48.1664 -48.1626 -48.1619 -48.1583 -48.1579 -48.1535
   -48.1501 -48.1457 -48.1408 -48.1396 -48.1340 -48.1329 -48.1328 -48.1318
   -48.1239 -48.1205 -48.1194 -48.1176 -48.1145 -48.1022 -39.2739 -39.2638
   -39.1056 -39.0956 -39.0328 -39.0298 -13.7391 -13.7063 -13.2410 -13.2030
    -7.2197  -7.1801  -5.6699  -5.5724  -4.8905  -4.7614  -3.8279  -3.8035
    -3.1710  -3.0015  -2.6348  -2.6237  -1.3010  -1.2981   1.3382   1.3901
     1.7916   1.8839   3.0785   3.2201   3.3752   3.6501   4.3544

          k = 0.1250 0.2165 0.0000 ( 37933 PWs)   bands (ev):

   -74.8827 -74.8756 -48.1663 -48.1647 -48.1627 -48.1610 -48.1578 -48.1562
   -48.1501 -48.1484 -48.1397 -48.1393 -48.1329 -48.1324 -48.1319 -48.1315
   -48.1253 -48.1194 -48.1191 -48.1189 -48.1158 -48.1035 -39.1350 -39.1250
   -39.0714 -39.0621 -39.0613 -39.0576 -14.8792 -14.8029 -14.1898 -14.0937
    -6.2897  -5.9259  -5.0981  -4.8435  -3.7553  -3.7334  -3.0893  -2.9146
    -2.9015  -2.8736  -1.9833  -1.8568  -1.1513  -0.8794   0.2517   0.2999
     0.6279   0.8926   2.6112   2.6734   2.7174   2.9263   4.4875

          k = 0.1250 0.2887 0.0000 ( 37936 PWs)   bands (ev):

   -74.8808 -74.8738 -48.1662 -48.1640 -48.1625 -48.1603 -48.1578 -48.1555
   -48.1500 -48.1477 -48.1400 -48.1394 -48.1332 -48.1326 -48.1321 -48.1316
   -48.1249 -48.1197 -48.1192 -48.1185 -48.1154 -48.1031 -39.1723 -39.1623
   -39.0852 -39.0752 -39.0531 -39.0501 -14.5290 -14.4556 -14.0240 -13.9405
    -5.8748  -5.5574  -5.3188  -5.1001  -4.5626  -4.5368  -3.4921  -3.4010
    -2.9997  -2.9592  -2.2419  -2.1748  -1.0300  -0.8216   0.0238   0.1967
     1.0117   1.2342   2.3847   2.3980   3.0053   3.3201   4.9701

          k = 0.1250 0.3608 0.0000 ( 38000 PWs)   bands (ev):

   -74.8790 -74.8719 -48.1661 -48.1633 -48.1624 -48.1596 -48.1577 -48.1548
   -48.1498 -48.1470 -48.1403 -48.1395 -48.1335 -48.1327 -48.1324 -48.1317
   -48.1245 -48.1200 -48.1193 -48.1182 -48.1150 -48.1027 -39.2091 -39.1990
   -39.0993 -39.0893 -39.0447 -39.0417 -14.1514 -14.0842 -13.8273 -13.7589
    -5.8011  -5.7158  -5.4511  -5.3353  -5.0462  -4.7487  -3.8664  -3.7972
    -3.1102  -3.0610  -2.6687  -2.6191  -0.9291  -0.7844   0.1057   0.3334
     1.4166   1.5559   2.2838   2.3489   3.3438   3.7064   5.3061

          k = 0.1250 0.4330 0.0000 ( 38048 PWs)   bands (ev):

   -74.8774 -74.8704 -48.1661 -48.1627 -48.1623 -48.1590 -48.1576 -48.1543
   -48.1498 -48.1464 -48.1406 -48.1396 -48.1337 -48.1328 -48.1327 -48.1318
   -48.1241 -48.1203 -48.1194 -48.1178 -48.1147 -48.1024 -39.2400 -39.2299
   -39.1114 -39.1013 -39.0376 -39.0346 -13.8504 -13.7967 -13.5765 -13.5219
    -6.3899  -6.3432  -5.6783  -5.5073  -4.6828  -4.4850  -4.1255  -4.0250
    -3.2425  -3.1928  -3.0289  -2.9915  -0.9247  -0.8322   0.4604   0.6655
     1.7266   1.7960   2.3577   2.4730   3.6187   3.8921   5.0141

          k = 0.1250 0.5052 0.0000 ( 38027 PWs)   bands (ev):

   -74.8763 -74.8693 -48.1660 -48.1624 -48.1621 -48.1586 -48.1576 -48.1539
   -48.1497 -48.1460 -48.1407 -48.1397 -48.1339 -48.1328 -48.1328 -48.1319
   -48.1239 -48.1204 -48.1195 -48.1176 -48.1145 -48.1022 -39.2605 -39.2503
   -39.1195 -39.1094 -39.0328 -39.0298 -13.6937 -13.6568 -13.3147 -13.2740
    -6.9084  -6.8661  -5.6727  -5.5534  -4.6992  -4.5799  -4.1043  -4.0031
    -3.3377  -3.2795  -3.1489  -3.0785  -1.0028  -0.9300   0.9403   1.0803
     1.8194   1.8602   2.5330   2.6684   3.5527   3.8402   4.8736

          k = 0.1250 0.5774 0.0000 ( 37968 PWs)   bands (ev):

   -74.8760 -74.8689 -48.1660 -48.1623 -48.1620 -48.1585 -48.1576 -48.1537
   -48.1497 -48.1459 -48.1408 -48.1397 -48.1339 -48.1329 -48.1329 -48.1319
   -48.1238 -48.1205 -48.1195 -48.1175 -48.1144 -48.1021 -39.2676 -39.2575
   -39.1223 -39.1123 -39.0311 -39.0282 -13.6441 -13.6154 -13.2031 -13.1715
    -7.0994  -7.0618  -5.6259  -5.5691  -4.8058  -4.6759  -4.0640  -4.0032
    -3.3578  -3.2970  -3.1284  -3.0475  -1.0536  -0.9815   1.2865   1.3144
     1.7158   1.7789   2.6753   2.7695   3.4459   3.7118   4.7774

          k = 0.1875 0.3248 0.0000 ( 37987 PWs)   bands (ev):

   -74.8791 -74.8721 -48.1660 -48.1635 -48.1623 -48.1598 -48.1575 -48.1550
   -48.1497 -48.1472 -48.1403 -48.1395 -48.1334 -48.1327 -48.1324 -48.1317
   -48.1245 -48.1200 -48.1193 -48.1182 -48.1151 -48.1028 -39.2010 -39.1909
   -39.1033 -39.0933 -39.0454 -39.0424 -14.1745 -14.1056 -13.8578 -13.7886
    -5.6118  -5.4355  -5.3869  -5.3345  -5.1013  -4.8237  -3.8777  -3.7877
    -3.4055  -3.3788  -2.5318  -2.5175  -0.7134  -0.5201  -0.1420   0.0730
     1.4085   1.5885   2.1049   2.1298   3.3319   3.7159   5.4739

          k = 0.1875 0.3969 0.0000 ( 38014 PWs)   bands (ev):

   -74.8775 -74.8705 -48.1657 -48.1630 -48.1620 -48.1594 -48.1573 -48.1546
   -48.1494 -48.1468 -48.1405 -48.1397 -48.1336 -48.1328 -48.1326 -48.1319
   -48.1242 -48.1202 -48.1195 -48.1178 -48.1147 -48.1024 -39.2257 -39.2156
   -39.1217 -39.1117 -39.0383 -39.0353 -13.8288 -13.7684 -13.6672 -13.6147
    -5.9665  -5.9328  -5.6285  -5.4652  -4.7728  -4.4838  -4.2202  -4.1338
    -3.7561  -3.7172  -2.9561  -2.8990  -0.5257  -0.3854  -0.0039   0.2052
     1.7388   1.8404   2.0115   2.0830   3.6698   3.9995   5.4602

          k = 0.1875 0.4691 0.0000 ( 38010 PWs)   bands (ev):

   -74.8763 -74.8693 -48.1655 -48.1627 -48.1618 -48.1591 -48.1571 -48.1543
   -48.1492 -48.1465 -48.1406 -48.1398 -48.1338 -48.1329 -48.1327 -48.1320
   -48.1239 -48.1203 -48.1196 -48.1176 -48.1145 -48.1022 -39.2436 -39.2335
   -39.1367 -39.1266 -39.0328 -39.0299 -13.6222 -13.5800 -13.4133 -13.3720
    -6.4824  -6.4463  -5.6489  -5.5327  -4.5327  -4.4212  -4.3113  -4.1523
    -4.0157  -3.9508  -3.2381  -3.2052  -0.5947  -0.4865   0.4476   0.5939
     1.8277   1.8688   2.1248   2.2845   3.7927   4.0047   5.2676

          k = 0.1875 0.5413 0.0000 ( 38010 PWs)   bands (ev):

   -74.8757 -74.8687 -48.1654 -48.1626 -48.1616 -48.1589 -48.1570 -48.1541
   -48.1491 -48.1463 -48.1407 -48.1399 -48.1338 -48.1330 -48.1328 -48.1320
   -48.1238 -48.1204 -48.1196 -48.1175 -48.1144 -48.1020 -39.2530 -39.2429
   -39.1450 -39.1350 -39.0299 -39.0269 -13.5344 -13.5069 -13.2245 -13.1962
    -6.7829  -6.7453  -5.6258  -5.5674  -4.6493  -4.5280  -4.2384  -4.1593
    -4.0886  -4.0230  -3.2826  -3.2660  -0.6981  -0.5947   0.9483   1.0198
     1.6033   1.6340   2.3922   2.5225   3.5602   3.8387   5.1820

          k = 0.2500 0.4330 0.0000 ( 38031 PWs)   bands (ev):

   -74.8763 -74.8693 -48.1653 -48.1630 -48.1615 -48.1593 -48.1569 -48.1545
   -48.1490 -48.1467 -48.1406 -48.1399 -48.1337 -48.1330 -48.1327 -48.1320
   -48.1239 -48.1203 -48.1196 -48.1176 -48.1145 -48.1022 -39.2347 -39.2246
   -39.1457 -39.1356 -39.0328 -39.0299 -13.5521 -13.5042 -13.4885 -13.4622
    -6.2174  -6.2051  -5.6388  -5.5324  -4.5613  -4.4224  -4.4062  -4.3250
    -4.2304  -4.0716  -3.3436  -3.2485  -0.1876  -0.0413   0.0086   0.1199
     1.7868   1.8695   2.0142   2.1705   3.9131   4.0709   5.2943

          k = 0.2500 0.5052 0.0000 ( 38019 PWs)   bands (ev):

   -74.8755 -74.8685 -48.1649 -48.1630 -48.1612 -48.1593 -48.1565 -48.1545
   -48.1486 -48.1467 -48.1406 -48.1400 -48.1338 -48.1331 -48.1328 -48.1321
   -48.1238 -48.1204 -48.1197 -48.1174 -48.1143 -48.1020 -39.2370 -39.2269
   -39.1655 -39.1554 -39.0292 -39.0263 -13.4291 -13.4003 -13.2877 -13.2613
    -6.3960  -6.3697  -5.6383  -5.5843  -4.8452  -4.8117  -4.4667  -4.3478
    -4.1101  -3.9951  -3.5905  -3.5127  -0.2298  -0.1121   0.3992   0.4803
     1.5543   1.5608   2.2657   2.5456   3.7434   3.9290   5.0386

          k = 0.2500 0.5774 0.0000 ( 38023 PWs)   bands (ev):

   -74.8752 -74.8682 -48.1648 -48.1630 -48.1610 -48.1593 -48.1563 -48.1546
   -48.1484 -48.1467 -48.1406 -48.1400 -48.1338 -48.1332 -48.1328 -48.1322
   -48.1237 -48.1204 -48.1198 -48.1174 -48.1143 -48.1020 -39.2365 -39.2264
   -39.1736 -39.1636 -39.0279 -39.0250 -13.3880 -13.3686 -13.2044 -13.1864
    -6.4596  -6.4220  -5.6328  -5.6030  -5.0076  -4.9788  -4.3596  -4.2338
    -4.2070  -4.1241  -3.5954  -3.5421  -0.2845  -0.1719   0.7479   0.8354
     1.2119   1.2351   2.5852   2.7215   3.5598   3.6882   4.9341

          k = 0.3125 0.5413 0.0000 ( 38095 PWs)   bands (ev):

   -74.8751 -74.8681 -48.1644 -48.1633 -48.1606 -48.1597 -48.1560 -48.1549
   -48.1480 -48.1471 -48.1406 -48.1401 -48.1337 -48.1332 -48.1328 -48.1323
   -48.1237 -48.1204 -48.1199 -48.1174 -48.1143 -48.1020 -39.2216 -39.2116
   -39.1928 -39.1827 -39.0273 -39.0243 -13.2992 -13.2840 -13.2347 -13.2205
    -6.1469  -6.1168  -5.6552  -5.6357  -5.4454  -5.4125  -4.3365  -4.1987
    -3.9870  -3.9497  -3.9126  -3.8027   0.1320   0.2644   0.3584   0.4648
     1.0681   1.0827   2.7213   3.0198   3.3901   3.6266   4.8246

     the Fermi energy is    -0.0244 ev

!    total energy              =   -3113.97412176 Ry
     total all-electron energy =    -83998.698686 Ry
     estimated scf accuracy    <       0.00000008 Ry
     smearing contrib. (-TS)   =       0.00061313 Ry
     internal energy E=F+TS    =   -3113.97473490 Ry

     The total energy is F=E-TS. E is the sum of the following terms:
     one-electron contribution =  -28602.51420610 Ry
     hartree contribution      =   14288.39121911 Ry
     xc contribution           =    -193.60042612 Ry
     ewald contribution        =   13155.06276059 Ry
     one-center paw contrib.   =   -1761.31408237 Ry

     convergence has been achieved in  28 iterations

     Writing all to output data dir ./tmp/cleave_002/wse2_cleave_002.save/ :
     XML data file, charge density, pseudopotentials, collected wavefunctions

     init_run     :     28.10s CPU     28.61s WALL (       1 calls)
     electrons    :   1285.64s CPU   1321.78s WALL (       1 calls)

     Called by init_run:
     wfcinit      :     15.10s CPU     15.31s WALL (       1 calls)
     potinit      :     11.92s CPU     12.02s WALL (       1 calls)
     hinit0       :      0.10s CPU      0.11s WALL (       1 calls)

     Called by electrons:
     c_bands      :   1078.37s CPU   1103.79s WALL (      29 calls)
     sum_band     :    147.58s CPU    153.61s WALL (      29 calls)
     v_of_rho     :     35.27s CPU     36.60s WALL (      29 calls)
     newd         :     21.12s CPU     24.33s WALL (      29 calls)
     PAW_pot      :      2.87s CPU      2.93s WALL (      29 calls)
     mix_rho      :     12.54s CPU     12.84s WALL (      29 calls)
     vdW_kernel   :     10.86s CPU     10.87s WALL (       1 calls)

     Called by c_bands:
     init_us_2    :      3.20s CPU      3.21s WALL (    1770 calls)
     cegterg      :   1039.81s CPU   1063.96s WALL (     870 calls)

     Called by *egterg:
     cdiaghg      :      9.62s CPU      9.64s WALL (    3732 calls)
     h_psi        :    385.94s CPU    392.55s WALL (    3792 calls)
     s_psi        :     58.45s CPU     58.49s WALL (    3792 calls)
     g_psi        :      0.47s CPU      0.48s WALL (    2892 calls)

     Called by h_psi:
     h_psi:calbec :    162.08s CPU    166.08s WALL (    3792 calls)
     vloc_psi     :    162.55s CPU    165.10s WALL (    3792 calls)
                                        0.00s GPU  (    3792 calls)
     add_vuspsi   :     60.50s CPU     60.55s WALL (    3792 calls)

     General routines
     calbec       :    236.64s CPU    242.53s WALL (    4662 calls)
     fft          :     19.10s CPU     19.63s WALL (    1826 calls)
     ffts         :      5.21s CPU      5.35s WALL (    3379 calls)
     fftw         :    191.75s CPU    194.77s WALL (  259466 calls)
     interpolate  :      0.30s CPU      0.31s WALL (      29 calls)

     Parallel routines

     PWSCF        :  21m54.33s CPU  22m31.17s WALL


   This run was terminated on:  13:27:26  18Jun2026            

=------------------------------------------------------------------------------=
   JOB DONE.
=------------------------------------------------------------------------------=
Note: The following floating-point exceptions are signalling: IEEE_UNDERFLOW_FLAG IEEE_DENORMAL
Note: The following floating-point exceptions are signalling: IEEE_UNDERFLOW_FLAG IEEE_DENORMAL
Note: The following floating-point exceptions are signalling: IEEE_UNDERFLOW_FLAG IEEE_DENORMAL
Note: The following floating-point exceptions are signalling: IEEE_UNDERFLOW_FLAG IEEE_DENORMAL
Note: The following floating-point exceptions are signalling: IEEE_UNDERFLOW_FLAG IEEE_DENORMAL
Note: The following floating-point exceptions are signalling: IEEE_UNDERFLOW_FLAG IEEE_DENORMAL
Note: The following floating-point exceptions are signalling: IEEE_UNDERFLOW_FLAG IEEE_DENORMAL
Note: The following floating-point exceptions are signalling: IEEE_UNDERFLOW_FLAG IEEE_DENORMAL
Note: The following floating-point exceptions are signalling: IEEE_UNDERFLOW_FLAG IEEE_DENORMAL
Note: The following floating-point exceptions are signalling: IEEE_UNDERFLOW_FLAG IEEE_DENORMAL
Note: The following floating-point exceptions are signalling: IEEE_UNDERFLOW_FLAG IEEE_DENORMAL
Note: The following floating-point exceptions are signalling: IEEE_UNDERFLOW_FLAG IEEE_DENORMAL
