
     Program PWSCF v.7.5 starts on 18Jun2026 at 15:36: 1 

     This program is part of the open-source Quantum ESPRESSO suite
     for quantum simulation of materials; please cite
         "P. Giannozzi et al., J. Phys.:Condens. Matter 21 395502 (2009);
         "P. Giannozzi et al., J. Phys.:Condens. Matter 29 465901 (2017);
         "P. Giannozzi et al., J. Chem. Phys. 152 154105 (2020);
          URL http://www.quantum-espresso.org", 
     in publications or presentations arising from this work. More details at
     http://www.quantum-espresso.org/quote

     Parallel version (MPI), running on    12 processors

     MPI processes distributed on     1 nodes
     29603 MiB available memory on the printing compute node when the environment starts

     Waiting for input...
     Reading input from standard input

     Current dimensions of program PWSCF are:
     Max number of different atomic species (ntypx) = 10
     Max number of k-points (npk) =  40000
     Max angular momentum in pseudopotentials (lmaxx) =  4
     file W.pbe-spn-kjpaw_psl.1.0.0.UPF: wavefunction(s)  6S 5P 5D renormalized
     file Se.pbe-dn-kjpaw_psl.1.0.0.UPF: wavefunction(s)  4S 4P 3D renormalized

     IMPORTANT: XC functional enforced from input :
     Exchange-correlation= VDW-DF2-B86R
                           (   1   4  26   0   2   0   0)
     Any further DFT definition will be discarded
     Please, verify this is what you really want


     R & G space division:  proc/nbgrp/npool/nimage =      12
     Subspace diagonalization in iterative solution of the eigenvalue problem:
     a serial algorithm will be used


     Parallelization info
     --------------------
     sticks:   dense  smooth     PW     G-vecs:    dense   smooth      PW
     Min         139      70     20                71489    25322    3895
     Max         140      71     22                71558    25395    3945
     Sum        1675     847    253               858263   304337   46813

     Using Slab Decomposition



     bravais-lattice index     =            4
     lattice parameter (alat)  =       6.1983  a.u.
     unit-cell volume          =    3143.7277 (a.u.)^3
     number of atoms/cell      =            6
     number of atomic types    =            2
     number of electrons       =        92.00
     number of Kohn-Sham states=           55
     kinetic-energy cutoff     =      80.0000  Ry
     charge density cutoff     =     640.0000  Ry
     scf convergence threshold =      1.0E-07
     mixing beta               =       0.1000
     number of iterations used =           12  local-TF  mixing
     Exchange-correlation= VDW-DF2-B86R
                           (   1   4  26   0   2   0   0)

     celldm(1)=   6.198302  celldm(2)=   0.000000  celldm(3)=  15.243902
     celldm(4)=   0.000000  celldm(5)=   0.000000  celldm(6)=   0.000000

     crystal axes: (cart. coord. in units of alat)
               a(1) = (   1.000000   0.000000   0.000000 )  
               a(2) = (  -0.500000   0.866025   0.000000 )  
               a(3) = (   0.000000   0.000000  15.243902 )  

     reciprocal axes: (cart. coord. in units 2 pi/alat)
               b(1) = (  1.000000  0.577350 -0.000000 )  
               b(2) = (  0.000000  1.154701  0.000000 )  
               b(3) = (  0.000000 -0.000000  0.065600 )  


     PseudoPot. # 1 for W  read from file:
     ./pseudo/W.pbe-spn-kjpaw_psl.1.0.0.UPF
     MD5 check sum: 03c3df5b60893f488392c7401945500a
     Pseudo is Projector augmented-wave + core cor, Zval = 14.0
     Generated using &quot;atomic&quot; code by A. Dal Corso  v.6.2.2
     Shape of augmentation charge: PSQ
     Using radial grid of 1273 points,  6 beta functions with: 
                l(1) =   0
                l(2) =   0
                l(3) =   1
                l(4) =   1
                l(5) =   2
                l(6) =   2
     Q(r) pseudized with 0 coefficients 


     PseudoPot. # 2 for Se read from file:
     ./pseudo/Se.pbe-dn-kjpaw_psl.1.0.0.UPF
     MD5 check sum: ac240dd2bae32a30e0bf3a38df9c8785
     Pseudo is Projector augmented-wave + core cor, Zval = 16.0
     Generated using &quot;atomic&quot; code by A. Dal Corso  v.6.3
     Shape of augmentation charge: PSQ
     Using radial grid of 1211 points,  6 beta functions with: 
                l(1) =   0
                l(2) =   0
                l(3) =   1
                l(4) =   1
                l(5) =   2
                l(6) =   2
     Q(r) pseudized with 0 coefficients 


     atomic species   valence    mass     pseudopotential
     W                14.00   183.84000     W ( 1.00)
     Se               16.00    78.96000     Se( 1.00)

      6 Sym. Ops. (no inversion) found



   Cartesian axes

     site n.     atom                  positions (alat units)
         1        Se     tau(   1) = (  -0.0000005   0.5773506   6.1149390  )
         2        W      tau(   2) = (   0.0000000   0.0000000   6.6383232  )
         3        Se     tau(   3) = (   0.5000005   0.2886748   7.1618445  )
         4        Se     tau(   4) = (  -0.0000005   0.5773506   8.9352896  )
         5        W      tau(   5) = (   0.5000005   0.2886748   9.4585366  )
         6        Se     tau(   6) = (   0.0000000   0.0000000   9.9826220  )

     number of k points=    30  Methfessel-Paxton smearing, width (Ry)=  0.0200
                       cart. coord. in units 2pi/alat
        k(    1) = (   0.0000000   0.0000000   0.0000000), wk =   0.0078125
        k(    2) = (   0.0000000   0.0721688   0.0000000), wk =   0.0468750
        k(    3) = (   0.0000000   0.1443376   0.0000000), wk =   0.0468750
        k(    4) = (   0.0000000   0.2165064   0.0000000), wk =   0.0468750
        k(    5) = (   0.0000000   0.2886751   0.0000000), wk =   0.0468750
        k(    6) = (   0.0000000   0.3608439   0.0000000), wk =   0.0468750
        k(    7) = (   0.0000000   0.4330127   0.0000000), wk =   0.0468750
        k(    8) = (   0.0000000   0.5051815   0.0000000), wk =   0.0468750
        k(    9) = (   0.0000000  -0.5773503   0.0000000), wk =   0.0234375
        k(   10) = (   0.0625000   0.1082532   0.0000000), wk =   0.0468750
        k(   11) = (   0.0625000   0.1804220   0.0000000), wk =   0.0937500
        k(   12) = (   0.0625000   0.2525907   0.0000000), wk =   0.0937500
        k(   13) = (   0.0625000   0.3247595   0.0000000), wk =   0.0937500
        k(   14) = (   0.0625000   0.3969283   0.0000000), wk =   0.0937500
        k(   15) = (   0.0625000   0.4690971   0.0000000), wk =   0.0937500
        k(   16) = (   0.0625000   0.5412659   0.0000000), wk =   0.0937500
        k(   17) = (   0.1250000   0.2165064   0.0000000), wk =   0.0468750
        k(   18) = (   0.1250000   0.2886751   0.0000000), wk =   0.0937500
        k(   19) = (   0.1250000   0.3608439   0.0000000), wk =   0.0937500
        k(   20) = (   0.1250000   0.4330127   0.0000000), wk =   0.0937500
        k(   21) = (   0.1250000   0.5051815   0.0000000), wk =   0.0937500
        k(   22) = (   0.1250000   0.5773503   0.0000000), wk =   0.0468750
        k(   23) = (   0.1875000   0.3247595   0.0000000), wk =   0.0468750
        k(   24) = (   0.1875000   0.3969283   0.0000000), wk =   0.0937500
        k(   25) = (   0.1875000   0.4690971   0.0000000), wk =   0.0937500
        k(   26) = (   0.1875000   0.5412659   0.0000000), wk =   0.0937500
        k(   27) = (   0.2500000   0.4330127   0.0000000), wk =   0.0468750
        k(   28) = (   0.2500000   0.5051815   0.0000000), wk =   0.0937500
        k(   29) = (   0.2500000   0.5773503   0.0000000), wk =   0.0468750
        k(   30) = (   0.3125000   0.5412659   0.0000000), wk =   0.0468750

     Dense  grid:   858263 G-vectors     FFT dimensions: (  50,  50, 768)

     Smooth grid:   304337 G-vectors     FFT dimensions: (  36,  36, 540)

     Estimated max dynamical RAM per process >     350.14 MB

     Estimated total dynamical RAM >       4.10 GB

     Initial potential from superposition of free atoms

     starting charge      91.9986, renormalised to      92.0000

     negative rho (up, down):  1.671E-04 0.000E+00


     %%%%%%%%%%%%%%%%%%%%%%%%%%%%%%%%%%%%%%%%%%%%%%%%%%%%%%%%%%%%%%%%%%%%%%%%
     %                                                                      %
     % You are using vdW-DF, which was implemented by the Thonhauser group. %
     % Please cite the following two papers that made this development      %
     % possible and the two reviews that describe the various versions:     %
     %                                                                      %
     %   T. Thonhauser et al., PRL 115, 136402 (2015).                      %
     %   T. Thonhauser et al., PRB 76, 125112 (2007).                       %
     %   K. Berland et al., Rep. Prog. Phys. 78, 066501 (2015).             %
     %   D.C. Langreth et al., J. Phys.: Condens. Matter 21, 084203 (2009). %
     %                                                                      %
     % If you are calculating stress with vdW-DF, please also cite:         %
     %                                                                      %
     %   R. Sabatini et al., J. Phys.: Condens. Matter 24, 424209 (2012).   %
     %                                                                      %
     %%%%%%%%%%%%%%%%%%%%%%%%%%%%%%%%%%%%%%%%%%%%%%%%%%%%%%%%%%%%%%%%%%%%%%%%

     %%%%%%%%%%%%%%%%%%%%%%%%%%%%%%%%%%%%%%%%%%%%%%%%%%%%%%%%%%%%%%%%%%%%%%%%
     %                                                                      %
     %  vdW-DF NEWS:                                                        %
     %                                                                      %
     %  * vdW-DF3 is now available. DOI: 10.1021/acs.jctc.0c00471           %
     %    use with input_dft = 'vdW-DF3-opt1' or 'vdW-DF3-opt2'             %
     %                                                                      %
     %  * Unscreened and range-separated hybrid vdW-DF-cx functionals       %
     %    DOI: 10.1063/1.4986522 and 10.1088/1361-648X/ac2ad2               %
     %    use with input_dft = 'vdW-DF-cx0'    and 'vdW-DF-ahcx'            %
     %  * Unscreened and range-separated hybrid vdW-DF2-b86r functionals    %
     %    DOI: 10.1063/1.4986522 and DOI: 10.1103/PhysRevX.12.041003        %
     %    use with input_dft = 'vdW-DF2-br0' and 'vdW-DF2-ahbr'             %
     %                                                                      %
     %%%%%%%%%%%%%%%%%%%%%%%%%%%%%%%%%%%%%%%%%%%%%%%%%%%%%%%%%%%%%%%%%%%%%%%%


     Starting wfcs are   62 randomized atomic wfcs
     Checking if some PAW data can be deallocated... 

     total cpu time spent up to now is       43.7 secs

     per-process dynamical memory:   142.9 Mb

     Self-consistent Calculation

     iteration #  1     ecut=    80.00 Ry     beta= 0.10
     Davidson diagonalization with overlap
     ethr =  1.00E-02,  avg # of iterations =  4.2

     Threshold (ethr) on eigenvalues was too large:
     Diagonalizing with lowered threshold

     Davidson diagonalization with overlap
     ethr =  1.09E-04,  avg # of iterations =  5.0

     negative rho (up, down):  8.470E-05 0.000E+00

     total cpu time spent up to now is      230.8 secs

     total energy              =   -3113.99428036 Ry
     estimated scf accuracy    <       0.12833509 Ry

     iteration #  2     ecut=    80.00 Ry     beta= 0.10
     Davidson diagonalization with overlap
     ethr =  1.39E-04,  avg # of iterations =  1.0

     negative rho (up, down):  6.621E-05 0.000E+00

     total cpu time spent up to now is      307.1 secs

     total energy              =   -3113.95053489 Ry
     estimated scf accuracy    <       0.11664746 Ry

     iteration #  3     ecut=    80.00 Ry     beta= 0.10
     Davidson diagonalization with overlap
     ethr =  1.27E-04,  avg # of iterations =  2.2

     negative rho (up, down):  2.479E-05 0.000E+00

     total cpu time spent up to now is      385.3 secs

     total energy              =   -3113.96482976 Ry
     estimated scf accuracy    <       0.02424167 Ry

     iteration #  4     ecut=    80.00 Ry     beta= 0.10
     Davidson diagonalization with overlap
     ethr =  2.63E-05,  avg # of iterations =  3.5

     negative rho (up, down):  1.811E-06 0.000E+00

     total cpu time spent up to now is      466.1 secs

     total energy              =   -3113.96023903 Ry
     estimated scf accuracy    <       0.02125706 Ry

     iteration #  5     ecut=    80.00 Ry     beta= 0.10
     Davidson diagonalization with overlap
     ethr =  2.31E-05,  avg # of iterations =  4.6

     negative rho (up, down):  1.458E-06 0.000E+00

     total cpu time spent up to now is      555.5 secs

     total energy              =   -3113.96195861 Ry
     estimated scf accuracy    <       0.00282388 Ry

     iteration #  6     ecut=    80.00 Ry     beta= 0.10
     Davidson diagonalization with overlap
     c_bands:  1 eigenvalues not converged
     c_bands:  1 eigenvalues not converged
     ethr =  3.07E-06,  avg # of iterations =  8.8

     negative rho (up, down):  3.373E-07 0.000E+00

     total cpu time spent up to now is      648.2 secs

     total energy              =   -3113.96086928 Ry
     estimated scf accuracy    <       0.00253459 Ry

     iteration #  7     ecut=    80.00 Ry     beta= 0.10
     Davidson diagonalization with overlap
     ethr =  2.75E-06,  avg # of iterations =  4.7

     negative rho (up, down):  1.899E-07 0.000E+00

     total cpu time spent up to now is      742.4 secs

     total energy              =   -3113.96076153 Ry
     estimated scf accuracy    <       0.00329948 Ry

     iteration #  8     ecut=    80.00 Ry     beta= 0.10
     Davidson diagonalization with overlap
     ethr =  2.75E-06,  avg # of iterations =  2.3

     negative rho (up, down):  4.924E-08 0.000E+00

     total cpu time spent up to now is      827.3 secs

     total energy              =   -3113.96094187 Ry
     estimated scf accuracy    <       0.00071840 Ry

     iteration #  9     ecut=    80.00 Ry     beta= 0.10
     Davidson diagonalization with overlap
     ethr =  7.81E-07,  avg # of iterations =  4.6

     negative rho (up, down):  6.241E-08 0.000E+00

     total cpu time spent up to now is      911.6 secs

     total energy              =   -3113.96092980 Ry
     estimated scf accuracy    <       0.00059066 Ry

     iteration # 10     ecut=    80.00 Ry     beta= 0.10
     Davidson diagonalization with overlap
     ethr =  6.42E-07,  avg # of iterations =  2.2

     negative rho (up, down):  1.243E-08 0.000E+00

     total cpu time spent up to now is      989.3 secs

     total energy              =   -3113.96091824 Ry
     estimated scf accuracy    <       0.00052333 Ry

     iteration # 11     ecut=    80.00 Ry     beta= 0.10
     Davidson diagonalization with overlap
     ethr =  5.69E-07,  avg # of iterations =  3.3

     negative rho (up, down):  1.325E-08 0.000E+00

     total cpu time spent up to now is     1067.5 secs

     total energy              =   -3113.96092094 Ry
     estimated scf accuracy    <       0.00043098 Ry

     iteration # 12     ecut=    80.00 Ry     beta= 0.10
     Davidson diagonalization with overlap
     ethr =  4.68E-07,  avg # of iterations =  4.6

     negative rho (up, down):  3.153E-03 0.000E+00

     total cpu time spent up to now is     1145.3 secs

     total energy              =   -3113.96081930 Ry
     estimated scf accuracy    <       0.00052325 Ry

     iteration # 13     ecut=    80.00 Ry     beta= 0.10
     Davidson diagonalization with overlap
     ethr =  4.68E-07,  avg # of iterations =  4.7

     negative rho (up, down):  2.384E-03 0.000E+00

     total cpu time spent up to now is     1224.9 secs

     total energy              =   -3113.96085035 Ry
     estimated scf accuracy    <       0.00024974 Ry

     iteration # 14     ecut=    80.00 Ry     beta= 0.10
     Davidson diagonalization with overlap
     ethr =  2.71E-07,  avg # of iterations =  1.5

     negative rho (up, down):  3.477E-03 0.000E+00

     total cpu time spent up to now is     1306.2 secs

     total energy              =   -3113.96083903 Ry
     estimated scf accuracy    <       0.00024222 Ry

     iteration # 15     ecut=    80.00 Ry     beta= 0.10
     Davidson diagonalization with overlap
     ethr =  2.63E-07,  avg # of iterations =  1.2

     negative rho (up, down):  2.866E-03 0.000E+00

     total cpu time spent up to now is     1373.8 secs

     total energy              =   -3113.96085029 Ry
     estimated scf accuracy    <       0.00018209 Ry

     iteration # 16     ecut=    80.00 Ry     beta= 0.10
     Davidson diagonalization with overlap
     ethr =  1.98E-07,  avg # of iterations =  1.0

     negative rho (up, down):  3.671E-03 0.000E+00

     total cpu time spent up to now is     1447.3 secs

     total energy              =   -3113.96076818 Ry
     estimated scf accuracy    <       0.00020171 Ry

     iteration # 17     ecut=    80.00 Ry     beta= 0.10
     Davidson diagonalization with overlap
     ethr =  1.98E-07,  avg # of iterations =  5.4

     negative rho (up, down):  3.139E-03 0.000E+00

     total cpu time spent up to now is     1535.2 secs

     total energy              =   -3113.96078720 Ry
     estimated scf accuracy    <       0.00009304 Ry

     iteration # 18     ecut=    80.00 Ry     beta= 0.10
     Davidson diagonalization with overlap
     ethr =  1.01E-07,  avg # of iterations =  1.3

     negative rho (up, down):  1.952E-03 0.000E+00

     total cpu time spent up to now is     1606.2 secs

     total energy              =   -3113.96080401 Ry
     estimated scf accuracy    <       0.00009131 Ry

     iteration # 19     ecut=    80.00 Ry     beta= 0.10
     Davidson diagonalization with overlap
     ethr =  9.92E-08,  avg # of iterations =  5.1

     negative rho (up, down):  2.008E-03 0.000E+00

     total cpu time spent up to now is     1686.5 secs

     total energy              =   -3113.96074182 Ry
     estimated scf accuracy    <       0.00011748 Ry

     iteration # 20     ecut=    80.00 Ry     beta= 0.10
     Davidson diagonalization with overlap
     ethr =  9.92E-08,  avg # of iterations =  5.6

     negative rho (up, down):  1.936E-03 0.000E+00

     total cpu time spent up to now is     1775.7 secs

     total energy              =   -3113.96077230 Ry
     estimated scf accuracy    <       0.00003217 Ry

     iteration # 21     ecut=    80.00 Ry     beta= 0.10
     Davidson diagonalization with overlap
     ethr =  3.50E-08,  avg # of iterations =  2.2

     negative rho (up, down):  1.772E-03 0.000E+00

     total cpu time spent up to now is     1864.1 secs

     total energy              =   -3113.96078893 Ry
     estimated scf accuracy    <       0.00002260 Ry

     iteration # 22     ecut=    80.00 Ry     beta= 0.10
     Davidson diagonalization with overlap
     ethr =  2.46E-08,  avg # of iterations =  4.7

     negative rho (up, down):  1.681E-03 0.000E+00

     total cpu time spent up to now is     1950.9 secs

     total energy              =   -3113.96079313 Ry
     estimated scf accuracy    <       0.00002485 Ry

     iteration # 23     ecut=    80.00 Ry     beta= 0.10
     Davidson diagonalization with overlap
     ethr =  2.46E-08,  avg # of iterations =  1.0

     negative rho (up, down):  8.488E-04 0.000E+00

     total cpu time spent up to now is     2013.5 secs

     total energy              =   -3113.96078822 Ry
     estimated scf accuracy    <       0.00001639 Ry

     iteration # 24     ecut=    80.00 Ry     beta= 0.10
     Davidson diagonalization with overlap
     ethr =  1.78E-08,  avg # of iterations =  4.8

     negative rho (up, down):  6.366E-04 0.000E+00

     total cpu time spent up to now is     2106.5 secs

     total energy              =   -3113.96078913 Ry
     estimated scf accuracy    <       0.00000110 Ry

     iteration # 25     ecut=    80.00 Ry     beta= 0.10
     Davidson diagonalization with overlap
     ethr =  1.20E-09,  avg # of iterations =  2.0

     negative rho (up, down):  5.029E-04 0.000E+00

     total cpu time spent up to now is     2183.3 secs

     total energy              =   -3113.96079078 Ry
     estimated scf accuracy    <       0.00000045 Ry

     iteration # 26     ecut=    80.00 Ry     beta= 0.10
     Davidson diagonalization with overlap
     ethr =  4.91E-10,  avg # of iterations =  2.3

     negative rho (up, down):  3.370E-04 0.000E+00

     total cpu time spent up to now is     2270.2 secs

     total energy              =   -3113.96079197 Ry
     estimated scf accuracy    <       0.00000055 Ry

     iteration # 27     ecut=    80.00 Ry     beta= 0.10
     Davidson diagonalization with overlap
     ethr =  4.91E-10,  avg # of iterations =  2.3

     negative rho (up, down):  2.832E-04 0.000E+00

     total cpu time spent up to now is     2353.7 secs

     total energy              =   -3113.96079237 Ry
     estimated scf accuracy    <       0.00000021 Ry

     iteration # 28     ecut=    80.00 Ry     beta= 0.10
     Davidson diagonalization with overlap
     ethr =  2.29E-10,  avg # of iterations =  1.3

     negative rho (up, down):  1.875E-04 0.000E+00

     total cpu time spent up to now is     2427.0 secs

     total energy              =   -3113.96079298 Ry
     estimated scf accuracy    <       0.00000013 Ry

     iteration # 29     ecut=    80.00 Ry     beta= 0.10
     Davidson diagonalization with overlap
     ethr =  1.40E-10,  avg # of iterations =  1.4

     negative rho (up, down):  1.650E-04 0.000E+00

     total cpu time spent up to now is     2498.1 secs

     End of self-consistent calculation

          k = 0.0000 0.0000 0.0000 ( 38015 PWs)   bands (ev):

   -74.8864 -74.8862 -48.1532 -48.1532 -48.1529 -48.1529 -48.1517 -48.1517
   -48.1505 -48.1505 -48.1226 -48.1226 -48.1223 -48.1223 -48.1208 -48.1208
   -48.1198 -48.1198 -48.1086 -48.1083 -48.1066 -48.1057 -39.0793 -39.0789
   -39.0444 -39.0443 -39.0437 -39.0437 -15.5156 -15.5126 -14.4448 -14.4433
    -6.9824  -6.9708  -3.3698  -3.3571  -3.3571  -3.3525  -3.3525  -3.3020
    -1.3617  -1.2946  -0.6932  -0.6931  -0.6911  -0.6911   0.2035   0.2035
     0.2056   0.2056   3.0033   3.4059   3.4059   3.4078   3.4078

          k = 0.0000 0.0722 0.0000 ( 37975 PWs)   bands (ev):

   -74.8860 -74.8858 -48.1532 -48.1530 -48.1529 -48.1527 -48.1517 -48.1515
   -48.1505 -48.1503 -48.1227 -48.1226 -48.1224 -48.1223 -48.1209 -48.1209
   -48.1198 -48.1198 -48.1085 -48.1082 -48.1066 -48.1056 -39.0775 -39.0771
   -39.0534 -39.0528 -39.0465 -39.0458 -15.4545 -15.4516 -14.4168 -14.4152
    -6.9000  -6.8883  -3.8557  -3.8314  -3.3224  -3.3178  -2.9465  -2.9043
    -1.4251  -1.3785  -0.9853  -0.9723  -0.9221  -0.9198   0.1816   0.2006
     0.4049   0.4067   2.9747   3.0799   3.2329   3.3642   3.3661

          k = 0.0000 0.1443 0.0000 ( 37895 PWs)   bands (ev):

   -74.8849 -74.8847 -48.1532 -48.1528 -48.1525 -48.1522 -48.1517 -48.1510
   -48.1505 -48.1498 -48.1229 -48.1227 -48.1226 -48.1224 -48.1211 -48.1209
   -48.1200 -48.1198 -48.1082 -48.1079 -48.1063 -48.1053 -39.0793 -39.0786
   -39.0723 -39.0719 -39.0525 -39.0519 -15.2755 -15.2726 -14.3348 -14.3333
    -6.6602  -6.6485  -4.3568  -4.3395  -3.2393  -3.2348  -2.7219  -2.6838
    -2.0442  -2.0359  -1.3057  -1.3031  -1.2168  -1.1734   0.1700   0.2125
     0.7088   0.7101   2.4278   2.5306   3.2878   3.2897   3.5362

          k = 0.0000 0.2165 0.0000 ( 37851 PWs)   bands (ev):

   -74.8832 -74.8830 -48.1532 -48.1528 -48.1517 -48.1517 -48.1514 -48.1505
   -48.1502 -48.1490 -48.1232 -48.1229 -48.1228 -48.1225 -48.1214 -48.1210
   -48.1203 -48.1199 -48.1078 -48.1075 -48.1059 -48.1049 -39.1176 -39.1169
   -39.0646 -39.0642 -39.0615 -39.0609 -14.9921 -14.9893 -14.2054 -14.2037
    -6.2925  -6.2810  -4.8066  -4.7942  -3.3009  -3.2971  -3.1763  -3.1718
    -2.4658  -2.4318  -1.5983  -1.5954  -1.3464  -1.3200   0.2006   0.2572
     0.9116   0.9125   2.1005   2.2405   3.2613   3.2632   3.9406

          k = 0.0000 0.2887 0.0000 ( 37919 PWs)   bands (ev):

   -74.8812 -74.8809 -48.1532 -48.1529 -48.1517 -48.1509 -48.1505 -48.1505
   -48.1493 -48.1481 -48.1236 -48.1233 -48.1230 -48.1226 -48.1217 -48.1211
   -48.1206 -48.1200 -48.1074 -48.1071 -48.1055 -48.1045 -39.1625 -39.1618
   -39.0721 -39.0715 -39.0555 -39.0551 -14.6312 -14.6285 -14.0372 -14.0354
    -5.9007  -5.8908  -5.1215  -5.1121  -4.3583  -4.3552  -3.2218  -3.2175
    -2.6318  -2.6077  -1.6960  -1.6930  -1.6436  -1.6307   0.3568   0.4162
     1.0163   1.0171   2.2202   2.3989   3.3064   3.3086   4.4027

          k = 0.0000 0.3608 0.0000 ( 37933 PWs)   bands (ev):

   -74.8792 -74.8789 -48.1532 -48.1529 -48.1517 -48.1505 -48.1500 -48.1496
   -48.1485 -48.1473 -48.1240 -48.1236 -48.1231 -48.1228 -48.1219 -48.1211
   -48.1209 -48.1201 -48.1070 -48.1067 -48.1050 -48.1041 -39.2070 -39.2063
   -39.0827 -39.0821 -39.0463 -39.0460 -14.2466 -14.2440 -13.8322 -13.8303
    -5.9091  -5.9049  -5.3356  -5.3310  -4.9206  -4.9111  -3.3708  -3.3668
    -2.9728  -2.9592  -1.9463  -1.9366  -1.6354  -1.6324   0.7008   0.7522
     1.1095   1.1104   2.6529   2.8512   3.3801   3.3827   4.8471

          k = 0.0000 0.4330 0.0000 ( 37998 PWs)   bands (ev):

   -74.8775 -74.8772 -48.1533 -48.1530 -48.1517 -48.1505 -48.1492 -48.1489
   -48.1477 -48.1465 -48.1243 -48.1240 -48.1232 -48.1229 -48.1222 -48.1212
   -48.1211 -48.1202 -48.1066 -48.1063 -48.1047 -48.1037 -39.2445 -39.2438
   -39.0917 -39.0911 -39.0386 -39.0382 -13.9421 -13.9395 -13.5692 -13.5672
    -6.5230  -6.5201  -5.6051  -5.6002  -4.6964  -4.6901  -3.5354  -3.5315
    -3.2643  -3.2536  -2.1321  -2.1249  -1.5399  -1.5371   1.1737   1.2117
     1.2482   1.2495   3.1747   3.3357   3.4418   3.4449   4.5243

          k = 0.0000 0.5052 0.0000 ( 38048 PWs)   bands (ev):

   -74.8763 -74.8761 -48.1534 -48.1530 -48.1516 -48.1505 -48.1488 -48.1484
   -48.1473 -48.1461 -48.1246 -48.1242 -48.1233 -48.1229 -48.1223 -48.1213
   -48.1213 -48.1202 -48.1064 -48.1061 -48.1044 -48.1035 -39.2694 -39.2687
   -39.0977 -39.0970 -39.0334 -39.0330 -13.7806 -13.7778 -13.3009 -13.2989
    -7.0870  -7.0840  -5.6221  -5.6188  -4.7704  -4.7672  -3.6521  -3.6482
    -3.1964  -3.1868  -2.2486  -2.2443  -1.4784  -1.4759   1.3976   1.3992
     1.6535   1.6761   3.4242   3.4741   3.4781   3.4814   4.4177

          k = 0.0000-0.5774 0.0000 ( 38024 PWs)   bands (ev):

   -74.8759 -74.8757 -48.1534 -48.1530 -48.1516 -48.1505 -48.1486 -48.1482
   -48.1471 -48.1459 -48.1246 -48.1243 -48.1233 -48.1230 -48.1224 -48.1213
   -48.1213 -48.1202 -48.1063 -48.1060 -48.1043 -48.1034 -39.2781 -39.2774
   -39.0998 -39.0991 -39.0315 -39.0312 -13.7308 -13.7280 -13.1865 -13.1846
    -7.2998  -7.2968  -5.5862  -5.5843  -4.8926  -4.8893  -3.6935  -3.6896
    -3.0792  -3.0721  -2.3010  -2.2979  -1.4594  -1.4570   1.4641   1.4659
     1.8835   1.8927   3.4528   3.4885   3.4896   3.4931   4.2244

          k = 0.0625 0.1083 0.0000 ( 37895 PWs)   bands (ev):

   -74.8852 -74.8850 -48.1532 -48.1528 -48.1527 -48.1523 -48.1517 -48.1512
   -48.1505 -48.1500 -48.1228 -48.1227 -48.1225 -48.1224 -48.1210 -48.1209
   -48.1199 -48.1198 -48.1083 -48.1080 -48.1064 -48.1054 -39.0741 -39.0737
   -39.0706 -39.0699 -39.0508 -39.0502 -15.3344 -15.3315 -14.3618 -14.3602
    -6.7385  -6.7268  -4.2232  -4.2041  -3.2712  -3.2666  -2.7460  -2.7036
    -1.7847  -1.7766  -1.3156  -1.3114  -1.1268  -1.0833   0.2426   0.2777
     0.5573   0.5586   2.6464   2.7438   3.2128   3.2296   3.4591

          k = 0.0625 0.1804 0.0000 ( 37885 PWs)   bands (ev):

   -74.8838 -74.8836 -48.1531 -48.1528 -48.1521 -48.1517 -48.1517 -48.1505
   -48.1505 -48.1493 -48.1231 -48.1228 -48.1228 -48.1225 -48.1212 -48.1210
   -48.1202 -48.1199 -48.1080 -48.1077 -48.1061 -48.1051 -39.1019 -39.1013
   -39.0677 -39.0673 -39.0589 -39.0583 -15.1028 -15.0999 -14.2562 -14.2546
    -6.4306  -6.4189  -4.6523  -4.6383  -3.2626  -3.2583  -2.8136  -2.7965
    -2.4773  -2.4605  -1.6608  -1.6518  -1.1580  -1.1198   0.2990   0.3419
     0.6589   0.6693   2.3539   2.4749   3.0721   3.0824   3.8026

          k = 0.0625 0.2526 0.0000 ( 37916 PWs)   bands (ev):

   -74.8820 -74.8818 -48.1531 -48.1528 -48.1516 -48.1513 -48.1509 -48.1504
   -48.1497 -48.1486 -48.1234 -48.1231 -48.1229 -48.1226 -48.1215 -48.1211
   -48.1204 -48.1200 -48.1076 -48.1073 -48.1057 -48.1047 -39.1426 -39.1419
   -39.0700 -39.0693 -39.0590 -39.0586 -14.7788 -14.7760 -14.1084 -14.1066
    -6.0245  -6.0134  -5.0237  -5.0134  -3.9032  -3.9002  -3.2015  -3.1970
    -2.6092  -2.5897  -1.9206  -1.9128  -1.2193  -1.1977   0.2556   0.2986
     0.8584   0.8835   2.2805   2.4150   3.0718   3.1022   4.2284

          k = 0.0625 0.3248 0.0000 ( 37964 PWs)   bands (ev):

   -74.8800 -74.8797 -48.1531 -48.1528 -48.1516 -48.1504 -48.1504 -48.1501
   -48.1489 -48.1477 -48.1238 -48.1235 -48.1230 -48.1227 -48.1218 -48.1211
   -48.1207 -48.1201 -48.1072 -48.1069 -48.1052 -48.1043 -39.1862 -39.1856
   -39.0816 -39.0809 -39.0500 -39.0496 -14.3992 -14.3966 -13.9261 -13.9242
    -5.7511  -5.7439  -5.1921  -5.1845  -4.8275  -4.8225  -3.4343  -3.4301
    -2.7195  -2.7061  -2.2475  -2.2446  -1.2715  -1.2597   0.3706   0.4111
     1.1156   1.1371   2.4439   2.5746   3.1919   3.2593   4.7112

          k = 0.0625 0.3969 0.0000 ( 37981 PWs)   bands (ev):

   -74.8781 -74.8779 -48.1532 -48.1528 -48.1516 -48.1504 -48.1496 -48.1493
   -48.1481 -48.1469 -48.1242 -48.1238 -48.1232 -48.1228 -48.1221 -48.1212
   -48.1210 -48.1202 -48.1068 -48.1064 -48.1048 -48.1039 -39.2263 -39.2256
   -39.0923 -39.0916 -39.0415 -39.0412 -14.0416 -14.0390 -13.6999 -13.6978
    -6.1360  -6.1331  -5.5140  -5.5088  -4.7726  -4.7638  -3.6832  -3.6790
    -2.9831  -2.9757  -2.4765  -2.4730  -1.2629  -1.2563   0.6695   0.6987
     1.3878   1.4040   2.7529   2.8365   3.3897   3.5023   4.9001

          k = 0.0625 0.4691 0.0000 ( 38057 PWs)   bands (ev):

   -74.8767 -74.8765 -48.1532 -48.1529 -48.1515 -48.1504 -48.1490 -48.1487
   -48.1475 -48.1463 -48.1245 -48.1241 -48.1233 -48.1230 -48.1222 -48.1213
   -48.1212 -48.1202 -48.1065 -48.1061 -48.1045 -48.1036 -39.2567 -39.2560
   -39.1005 -39.0998 -39.0351 -39.0347 -13.8139 -13.8113 -13.4200 -13.4179
    -6.7885  -6.7855  -5.6174  -5.6133  -4.6559  -4.6517  -3.7973  -3.7931
    -3.1507  -3.1437  -2.5729  -2.5699  -1.2663  -1.2628   1.0528   1.0687
     1.6615   1.6746   3.0055   3.0373   3.5793   3.6474   4.5770

          k = 0.0625 0.5413 0.0000 ( 38034 PWs)   bands (ev):

   -74.8759 -74.8757 -48.1532 -48.1529 -48.1515 -48.1503 -48.1487 -48.1484
   -48.1472 -48.1460 -48.1246 -48.1242 -48.1233 -48.1230 -48.1223 -48.1213
   -48.1213 -48.1203 -48.1063 -48.1060 -48.1044 -48.1034 -39.2731 -39.2724
   -39.1049 -39.1042 -39.0316 -39.0312 -13.7144 -13.7116 -13.2135 -13.2115
    -7.1877  -7.1847  -5.5911  -5.5887  -4.8133  -4.8101  -3.8066  -3.8030
    -3.0732  -3.0668  -2.6227  -2.6208  -1.2926  -1.2903   1.3644   1.3690
     1.8357   1.8448   3.1726   3.1829   3.5106   3.5479   4.4662

          k = 0.1250 0.2165 0.0000 ( 37933 PWs)   bands (ev):

   -74.8823 -74.8820 -48.1531 -48.1527 -48.1516 -48.1515 -48.1511 -48.1504
   -48.1499 -48.1488 -48.1234 -48.1231 -48.1229 -48.1226 -48.1214 -48.1211
   -48.1204 -48.1200 -48.1077 -48.1073 -48.1057 -48.1048 -39.1343 -39.1336
   -39.0707 -39.0700 -39.0601 -39.0597 -14.8293 -14.8265 -14.1328 -14.1311
    -6.0693  -6.0578  -4.9759  -4.9651  -3.7373  -3.7340  -2.9857  -2.9700
    -2.8998  -2.8964  -1.9209  -1.9048  -1.0546  -1.0217   0.2694   0.2851
     0.6764   0.7285   2.5963   2.6915   2.6926   2.7595   4.1742

          k = 0.1250 0.2887 0.0000 ( 37936 PWs)   bands (ev):

   -74.8804 -74.8802 -48.1530 -48.1526 -48.1515 -48.1507 -48.1504 -48.1503
   -48.1492 -48.1480 -48.1237 -48.1234 -48.1230 -48.1227 -48.1217 -48.1212
   -48.1206 -48.1201 -48.1073 -48.1069 -48.1053 -48.1044 -39.1716 -39.1709
   -39.0844 -39.0838 -39.0519 -39.0515 -14.4802 -14.4775 -13.9746 -13.9727
    -5.6533  -5.6435  -5.2322  -5.2239  -4.5455  -4.5422  -3.4420  -3.4355
    -2.9767  -2.9729  -2.2020  -2.1925  -0.9375  -0.9140   0.0820   0.1095
     1.0626   1.1069   2.3814   2.4074   2.9603   3.1270   4.6249

          k = 0.1250 0.3608 0.0000 ( 38000 PWs)   bands (ev):

   -74.8785 -74.8783 -48.1529 -48.1526 -48.1513 -48.1502 -48.1500 -48.1497
   -48.1485 -48.1473 -48.1241 -48.1237 -48.1232 -48.1228 -48.1219 -48.1213
   -48.1209 -48.1202 -48.1069 -48.1066 -48.1049 -48.1040 -39.2083 -39.2076
   -39.0986 -39.0979 -39.0435 -39.0431 -14.1052 -14.1026 -13.7869 -13.7849
    -5.7217  -5.7182  -5.3716  -5.3672  -4.9059  -4.8956  -3.8285  -3.8241
    -3.0801  -3.0770  -2.6349  -2.6305  -0.8548  -0.8400   0.1921   0.2206
     1.4579   1.4849   2.2992   2.3298   3.3238   3.4986   5.1122

          k = 0.1250 0.4330 0.0000 ( 38048 PWs)   bands (ev):

   -74.8770 -74.8768 -48.1529 -48.1525 -48.1512 -48.1501 -48.1494 -48.1491
   -48.1480 -48.1468 -48.1243 -48.1240 -48.1233 -48.1230 -48.1221 -48.1214
   -48.1211 -48.1203 -48.1065 -48.1062 -48.1046 -48.1036 -39.2392 -39.2385
   -39.1106 -39.1100 -39.0364 -39.0360 -13.8123 -13.8098 -13.5427 -13.5406
    -6.3542  -6.3514  -5.5640  -5.5595  -4.5603  -4.5535  -4.0787  -4.0741
    -3.2095  -3.2071  -3.0046  -3.0009  -0.8719  -0.8636   0.5483   0.5703
     1.7522   1.7636   2.4044   2.4330   3.6469   3.7726   5.0521

          k = 0.1250 0.5052 0.0000 ( 38027 PWs)   bands (ev):

   -74.8759 -74.8757 -48.1529 -48.1525 -48.1511 -48.1500 -48.1490 -48.1487
   -48.1476 -48.1464 -48.1245 -48.1241 -48.1234 -48.1231 -48.1223 -48.1214
   -48.1212 -48.1204 -48.1063 -48.1060 -48.1044 -48.1034 -39.2597 -39.2589
   -39.1187 -39.1180 -39.0316 -39.0312 -13.6664 -13.6637 -13.2864 -13.2843
    -6.8749  -6.8719  -5.5867  -5.5836  -4.6201  -4.6168  -4.0443  -4.0402
    -3.2985  -3.2964  -3.1087  -3.1043  -0.9581  -0.9535   1.0077   1.0207
     1.8373   1.8418   2.6060   2.6262   3.6867   3.7292   4.8950

          k = 0.1250 0.5774 0.0000 ( 37968 PWs)   bands (ev):

   -74.8755 -74.8753 -48.1529 -48.1525 -48.1511 -48.1499 -48.1489 -48.1485
   -48.1474 -48.1462 -48.1245 -48.1242 -48.1235 -48.1231 -48.1223 -48.1215
   -48.1213 -48.1204 -48.1062 -48.1059 -48.1043 -48.1033 -39.2668 -39.2661
   -39.1216 -39.1209 -39.0299 -39.0296 -13.6216 -13.6189 -13.1789 -13.1769
    -7.0680  -7.0650  -5.5701  -5.5680  -4.7257  -4.7225  -4.0224  -4.0192
    -3.3181  -3.3164  -3.0768  -3.0729  -1.0095  -1.0056   1.3067   1.3096
     1.7460   1.7508   2.7516   2.7550   3.5572   3.5979   4.9153

          k = 0.1875 0.3248 0.0000 ( 37987 PWs)   bands (ev):

   -74.8787 -74.8785 -48.1528 -48.1524 -48.1512 -48.1502 -48.1500 -48.1499
   -48.1487 -48.1475 -48.1240 -48.1237 -48.1231 -48.1228 -48.1219 -48.1214
   -48.1208 -48.1203 -48.1069 -48.1066 -48.1050 -48.1040 -39.2002 -39.1995
   -39.1026 -39.1019 -39.0442 -39.0438 -14.1272 -14.1246 -13.8172 -13.8152
    -5.4195  -5.4137  -5.3962  -5.3931  -4.9826  -4.9731  -3.8309  -3.8254
    -3.3865  -3.3833  -2.5134  -2.5093  -0.6053  -0.5843  -0.0748  -0.0493
     1.4601   1.4947   2.1162   2.1283   3.3066   3.4975   5.0929

          k = 0.1875 0.3969 0.0000 ( 38014 PWs)   bands (ev):

   -74.8771 -74.8769 -48.1526 -48.1522 -48.1509 -48.1498 -48.1498 -48.1494
   -48.1483 -48.1471 -48.1242 -48.1239 -48.1233 -48.1230 -48.1220 -48.1215
   -48.1210 -48.1204 -48.1066 -48.1063 -48.1046 -48.1037 -39.2249 -39.2242
   -39.1210 -39.1203 -39.0370 -39.0367 -13.7844 -13.7819 -13.6374 -13.6351
    -5.9366  -5.9339  -5.5172  -5.5125  -4.6085  -4.5990  -4.1831  -4.1790
    -3.7306  -3.7279  -2.9155  -2.9140  -0.4365  -0.4230   0.0720   0.0931
     1.7837   1.8017   2.0268   2.0475   3.6780   3.8313   5.4945

          k = 0.1875 0.4691 0.0000 ( 38010 PWs)   bands (ev):

   -74.8759 -74.8757 -48.1524 -48.1520 -48.1507 -48.1496 -48.1494 -48.1491
   -48.1480 -48.1468 -48.1244 -48.1240 -48.1235 -48.1231 -48.1222 -48.1216
   -48.1212 -48.1205 -48.1063 -48.1060 -48.1044 -48.1034 -39.2428 -39.2421
   -39.1359 -39.1352 -39.0316 -39.0313 -13.5907 -13.5882 -13.3861 -13.3839
    -6.4515  -6.4486  -5.5674  -5.5639  -4.4351  -4.4317  -4.2379  -4.2319
    -3.9821  -3.9797  -3.2133  -3.2116  -0.5284  -0.5210   0.5166   0.5301
     1.8490   1.8545   2.1901   2.2172   3.8648   3.9279   5.2099

          k = 0.1875 0.5413 0.0000 ( 38010 PWs)   bands (ev):

   -74.8753 -74.8750 -48.1523 -48.1519 -48.1506 -48.1495 -48.1493 -48.1489
   -48.1478 -48.1466 -48.1244 -48.1241 -48.1236 -48.1232 -48.1223 -48.1216
   -48.1213 -48.1205 -48.1062 -48.1059 -48.1043 -48.1033 -39.2522 -39.2515
   -39.1443 -39.1436 -39.0287 -39.0283 -13.5123 -13.5096 -13.2024 -13.2003
    -6.7510  -6.7481  -5.5747  -5.5721  -4.5664  -4.5632  -4.1730  -4.1699
    -4.0598  -4.0580  -3.2663  -3.2641  -0.6358  -0.6309   0.9904   0.9961
     1.6198   1.6220   2.4717   2.4903   3.6774   3.7131   5.2231

          k = 0.2500 0.4330 0.0000 ( 38031 PWs)   bands (ev):

   -74.8759 -74.8757 -48.1521 -48.1518 -48.1504 -48.1497 -48.1495 -48.1492
   -48.1482 -48.1470 -48.1243 -48.1240 -48.1235 -48.1232 -48.1222 -48.1217
   -48.1211 -48.1206 -48.1063 -48.1060 -48.1044 -48.1034 -39.2340 -39.2332
   -39.1449 -39.1442 -39.0316 -39.0313 -13.5045 -13.5022 -13.4821 -13.4796
    -6.1975  -6.1947  -5.5645  -5.5608  -4.4168  -4.4141  -4.3826  -4.3785
    -4.1746  -4.1690  -3.2841  -3.2831  -0.0473  -0.0325   0.0072   0.0127
     1.8339   1.8449   2.0653   2.0911   3.9394   4.0169   5.3874

          k = 0.2500 0.5052 0.0000 ( 38019 PWs)   bands (ev):

   -74.8751 -74.8749 -48.1518 -48.1514 -48.1501 -48.1496 -48.1494 -48.1488
   -48.1482 -48.1470 -48.1243 -48.1240 -48.1236 -48.1233 -48.1223 -48.1217
   -48.1212 -48.1207 -48.1061 -48.1058 -48.1042 -48.1033 -39.2362 -39.2355
   -39.1647 -39.1640 -39.0280 -39.0277 -13.4053 -13.4028 -13.2677 -13.2654
    -6.3688  -6.3660  -5.5940  -5.5910  -4.8104  -4.8076  -4.3787  -4.3754
    -4.0489  -4.0451  -3.5470  -3.5459  -0.1545  -0.1481   0.4420   0.4463
     1.5598   1.5613   2.3974   2.4312   3.8532   3.8706   5.1101

          k = 0.2500 0.5774 0.0000 ( 38023 PWs)   bands (ev):

   -74.8748 -74.8746 -48.1516 -48.1512 -48.1500 -48.1496 -48.1495 -48.1486
   -48.1483 -48.1471 -48.1243 -48.1240 -48.1237 -48.1234 -48.1223 -48.1217
   -48.1213 -48.1207 -48.1061 -48.1058 -48.1042 -48.1032 -39.2357 -39.2350
   -39.1729 -39.1722 -39.0267 -39.0264 -13.3701 -13.3675 -13.1878 -13.1855
    -6.4268  -6.4240  -5.6010  -5.5982  -4.9786  -4.9758  -4.2135  -4.2124
    -4.2093  -4.2066  -3.5643  -3.5631  -0.2147  -0.2099   0.8008   0.8026
     1.2232   1.2252   2.6922   2.7073   3.6040   3.6250   5.0318

          k = 0.3125 0.5413 0.0000 ( 38095 PWs)   bands (ev):

   -74.8747 -74.8745 -48.1513 -48.1509 -48.1501 -48.1498 -48.1494 -48.1486
   -48.1483 -48.1474 -48.1242 -48.1239 -48.1238 -48.1235 -48.1224 -48.1218
   -48.1213 -48.1207 -48.1061 -48.1058 -48.1042 -48.1032 -39.2209 -39.2202
   -39.1921 -39.1913 -39.0260 -39.0257 -13.2828 -13.2803 -13.2207 -13.2183
    -6.1164  -6.1137  -5.6307  -5.6278  -5.4167  -5.4139  -4.2235  -4.2207
    -3.9274  -3.9251  -3.8965  -3.8944   0.2247   0.2315   0.4062   0.4097
     1.0753   1.0771   2.8887   2.9200   3.5286   3.5449   4.8347

     the Fermi energy is    -0.0115 ev

!    total energy              =   -3113.96079321 Ry
     total all-electron energy =    -83998.685357 Ry
     estimated scf accuracy    <       0.00000006 Ry
     smearing contrib. (-TS)   =       0.00044172 Ry
     internal energy E=F+TS    =   -3113.96123493 Ry

     The total energy is F=E-TS. E is the sum of the following terms:
     one-electron contribution =  -23688.20041723 Ry
     hartree contribution      =   11831.25699329 Ry
     xc contribution           =    -193.57581354 Ry
     ewald contribution        =   10697.87187669 Ry
     one-center paw contrib.   =   -1761.31387414 Ry

     convergence has been achieved in  29 iterations

     Writing all to output data dir ./tmp/cleave_014/wse2_cleave_014.save/ :
     XML data file, charge density, pseudopotentials, collected wavefunctions

     init_run     :     35.68s CPU     42.43s WALL (       1 calls)
     electrons    :   2048.62s CPU   2454.53s WALL (       1 calls)

     Called by init_run:
     wfcinit      :     20.94s CPU     24.49s WALL (       1 calls)
     potinit      :     13.42s CPU     15.93s WALL (       1 calls)
     hinit0       :      0.26s CPU      0.27s WALL (       1 calls)

     Called by electrons:
     c_bands      :   1670.75s CPU   1981.74s WALL (      30 calls)
     sum_band     :    244.73s CPU    305.57s WALL (      30 calls)
     v_of_rho     :     61.84s CPU     75.04s WALL (      30 calls)
     newd         :     25.88s CPU     36.19s WALL (      30 calls)
     PAW_pot      :      5.05s CPU      6.10s WALL (      30 calls)
     mix_rho      :     52.87s CPU     64.89s WALL (      30 calls)
     vdW_kernel   :     11.19s CPU     13.27s WALL (       1 calls)

     Called by c_bands:
     init_us_2    :      5.62s CPU      7.01s WALL (    1830 calls)
     cegterg      :   1629.87s CPU   1934.51s WALL (     900 calls)

     Called by *egterg:
     cdiaghg      :     25.31s CPU     31.12s WALL (    3835 calls)
     h_psi        :    833.61s CPU    999.75s WALL (    3895 calls)
     s_psi        :    106.59s CPU    128.49s WALL (    3895 calls)
     g_psi        :      1.39s CPU      1.73s WALL (    2965 calls)

     Called by h_psi:
     h_psi:calbec :    203.67s CPU    240.45s WALL (    3895 calls)
     vloc_psi     :    499.66s CPU    597.25s WALL (    3895 calls)
                                        0.00s GPU  (    3895 calls)
     add_vuspsi   :    128.77s CPU    160.26s WALL (    3895 calls)

     General routines
     calbec       :    292.26s CPU    347.91s WALL (    4795 calls)
     fft          :     42.45s CPU     50.47s WALL (    1889 calls)
     ffts         :     17.78s CPU     21.50s WALL (    3504 calls)
     fftw         :    589.01s CPU    711.29s WALL (  268204 calls)
     interpolate  :      0.81s CPU      1.01s WALL (      30 calls)

     Parallel routines

     PWSCF        :  34m48.22s CPU  41m42.39s WALL


   This run was terminated on:  16:17:44  18Jun2026            

=------------------------------------------------------------------------------=
   JOB DONE.
=------------------------------------------------------------------------------=
Note: The following floating-point exceptions are signalling: IEEE_UNDERFLOW_FLAG IEEE_DENORMAL
Note: The following floating-point exceptions are signalling: IEEE_UNDERFLOW_FLAG IEEE_DENORMAL
Note: The following floating-point exceptions are signalling: IEEE_UNDERFLOW_FLAG IEEE_DENORMAL
Note: The following floating-point exceptions are signalling: IEEE_UNDERFLOW_FLAG IEEE_DENORMAL
Note: The following floating-point exceptions are signalling: IEEE_UNDERFLOW_FLAG IEEE_DENORMAL
Note: The following floating-point exceptions are signalling: IEEE_UNDERFLOW_FLAG IEEE_DENORMAL
Note: The following floating-point exceptions are signalling: IEEE_UNDERFLOW_FLAG IEEE_DENORMAL
Note: The following floating-point exceptions are signalling: IEEE_UNDERFLOW_FLAG IEEE_DENORMAL
Note: The following floating-point exceptions are signalling: IEEE_UNDERFLOW_FLAG IEEE_DENORMAL
Note: The following floating-point exceptions are signalling: IEEE_UNDERFLOW_FLAG IEEE_DENORMAL
Note: The following floating-point exceptions are signalling: IEEE_UNDERFLOW_FLAG IEEE_DENORMAL
Note: The following floating-point exceptions are signalling: IEEE_UNDERFLOW_FLAG IEEE_DENORMAL
