
     Program PWSCF v.7.5 starts on 18Jun2026 at 13:52:32 

     This program is part of the open-source Quantum ESPRESSO suite
     for quantum simulation of materials; please cite
         "P. Giannozzi et al., J. Phys.:Condens. Matter 21 395502 (2009);
         "P. Giannozzi et al., J. Phys.:Condens. Matter 29 465901 (2017);
         "P. Giannozzi et al., J. Chem. Phys. 152 154105 (2020);
          URL http://www.quantum-espresso.org", 
     in publications or presentations arising from this work. More details at
     http://www.quantum-espresso.org/quote

     Parallel version (MPI), running on    12 processors

     MPI processes distributed on     1 nodes
     32295 MiB available memory on the printing compute node when the environment starts

     Waiting for input...
     Reading input from standard input

     Current dimensions of program PWSCF are:
     Max number of different atomic species (ntypx) = 10
     Max number of k-points (npk) =  40000
     Max angular momentum in pseudopotentials (lmaxx) =  4
     file W.pbe-spn-kjpaw_psl.1.0.0.UPF: wavefunction(s)  6S 5P 5D renormalized
     file Se.pbe-dn-kjpaw_psl.1.0.0.UPF: wavefunction(s)  4S 4P 3D renormalized

     IMPORTANT: XC functional enforced from input :
     Exchange-correlation= VDW-DF2-B86R
                           (   1   4  26   0   2   0   0)
     Any further DFT definition will be discarded
     Please, verify this is what you really want


     R & G space division:  proc/nbgrp/npool/nimage =      12
     Subspace diagonalization in iterative solution of the eigenvalue problem:
     a serial algorithm will be used


     Parallelization info
     --------------------
     sticks:   dense  smooth     PW     G-vecs:    dense   smooth      PW
     Min         139      70     20                71489    25322    3895
     Max         140      71     22                71558    25395    3945
     Sum        1675     847    253               858263   304337   46813

     Using Slab Decomposition



     bravais-lattice index     =            4
     lattice parameter (alat)  =       6.1983  a.u.
     unit-cell volume          =    3143.7277 (a.u.)^3
     number of atoms/cell      =            6
     number of atomic types    =            2
     number of electrons       =        92.00
     number of Kohn-Sham states=           55
     kinetic-energy cutoff     =      80.0000  Ry
     charge density cutoff     =     640.0000  Ry
     scf convergence threshold =      1.0E-07
     mixing beta               =       0.1000
     number of iterations used =           12  local-TF  mixing
     Exchange-correlation= VDW-DF2-B86R
                           (   1   4  26   0   2   0   0)

     celldm(1)=   6.198302  celldm(2)=   0.000000  celldm(3)=  15.243902
     celldm(4)=   0.000000  celldm(5)=   0.000000  celldm(6)=   0.000000

     crystal axes: (cart. coord. in units of alat)
               a(1) = (   1.000000   0.000000   0.000000 )  
               a(2) = (  -0.500000   0.866025   0.000000 )  
               a(3) = (   0.000000   0.000000  15.243902 )  

     reciprocal axes: (cart. coord. in units 2 pi/alat)
               b(1) = (  1.000000  0.577350 -0.000000 )  
               b(2) = (  0.000000  1.154701  0.000000 )  
               b(3) = (  0.000000 -0.000000  0.065600 )  


     PseudoPot. # 1 for W  read from file:
     ./pseudo/W.pbe-spn-kjpaw_psl.1.0.0.UPF
     MD5 check sum: 03c3df5b60893f488392c7401945500a
     Pseudo is Projector augmented-wave + core cor, Zval = 14.0
     Generated using &quot;atomic&quot; code by A. Dal Corso  v.6.2.2
     Shape of augmentation charge: PSQ
     Using radial grid of 1273 points,  6 beta functions with: 
                l(1) =   0
                l(2) =   0
                l(3) =   1
                l(4) =   1
                l(5) =   2
                l(6) =   2
     Q(r) pseudized with 0 coefficients 


     PseudoPot. # 2 for Se read from file:
     ./pseudo/Se.pbe-dn-kjpaw_psl.1.0.0.UPF
     MD5 check sum: ac240dd2bae32a30e0bf3a38df9c8785
     Pseudo is Projector augmented-wave + core cor, Zval = 16.0
     Generated using &quot;atomic&quot; code by A. Dal Corso  v.6.3
     Shape of augmentation charge: PSQ
     Using radial grid of 1211 points,  6 beta functions with: 
                l(1) =   0
                l(2) =   0
                l(3) =   1
                l(4) =   1
                l(5) =   2
                l(6) =   2
     Q(r) pseudized with 0 coefficients 


     atomic species   valence    mass     pseudopotential
     W                14.00   183.84000     W ( 1.00)
     Se               16.00    78.96000     Se( 1.00)

      6 Sym. Ops. (no inversion) found



   Cartesian axes

     site n.     atom                  positions (alat units)
         1        Se     tau(   1) = (  -0.0000005   0.5773506   6.1149390  )
         2        W      tau(   2) = (   0.0000000   0.0000000   6.6383232  )
         3        Se     tau(   3) = (   0.5000005   0.2886748   7.1618445  )
         4        Se     tau(   4) = (  -0.0000005   0.5773506   8.4474848  )
         5        W      tau(   5) = (   0.5000005   0.2886748   8.9707317  )
         6        Se     tau(   6) = (   0.0000000   0.0000000   9.4948171  )

     number of k points=    30  Methfessel-Paxton smearing, width (Ry)=  0.0200
                       cart. coord. in units 2pi/alat
        k(    1) = (   0.0000000   0.0000000   0.0000000), wk =   0.0078125
        k(    2) = (   0.0000000   0.0721688   0.0000000), wk =   0.0468750
        k(    3) = (   0.0000000   0.1443376   0.0000000), wk =   0.0468750
        k(    4) = (   0.0000000   0.2165064   0.0000000), wk =   0.0468750
        k(    5) = (   0.0000000   0.2886751   0.0000000), wk =   0.0468750
        k(    6) = (   0.0000000   0.3608439   0.0000000), wk =   0.0468750
        k(    7) = (   0.0000000   0.4330127   0.0000000), wk =   0.0468750
        k(    8) = (   0.0000000   0.5051815   0.0000000), wk =   0.0468750
        k(    9) = (   0.0000000  -0.5773503   0.0000000), wk =   0.0234375
        k(   10) = (   0.0625000   0.1082532   0.0000000), wk =   0.0468750
        k(   11) = (   0.0625000   0.1804220   0.0000000), wk =   0.0937500
        k(   12) = (   0.0625000   0.2525907   0.0000000), wk =   0.0937500
        k(   13) = (   0.0625000   0.3247595   0.0000000), wk =   0.0937500
        k(   14) = (   0.0625000   0.3969283   0.0000000), wk =   0.0937500
        k(   15) = (   0.0625000   0.4690971   0.0000000), wk =   0.0937500
        k(   16) = (   0.0625000   0.5412659   0.0000000), wk =   0.0937500
        k(   17) = (   0.1250000   0.2165064   0.0000000), wk =   0.0468750
        k(   18) = (   0.1250000   0.2886751   0.0000000), wk =   0.0937500
        k(   19) = (   0.1250000   0.3608439   0.0000000), wk =   0.0937500
        k(   20) = (   0.1250000   0.4330127   0.0000000), wk =   0.0937500
        k(   21) = (   0.1250000   0.5051815   0.0000000), wk =   0.0937500
        k(   22) = (   0.1250000   0.5773503   0.0000000), wk =   0.0468750
        k(   23) = (   0.1875000   0.3247595   0.0000000), wk =   0.0468750
        k(   24) = (   0.1875000   0.3969283   0.0000000), wk =   0.0937500
        k(   25) = (   0.1875000   0.4690971   0.0000000), wk =   0.0937500
        k(   26) = (   0.1875000   0.5412659   0.0000000), wk =   0.0937500
        k(   27) = (   0.2500000   0.4330127   0.0000000), wk =   0.0468750
        k(   28) = (   0.2500000   0.5051815   0.0000000), wk =   0.0937500
        k(   29) = (   0.2500000   0.5773503   0.0000000), wk =   0.0468750
        k(   30) = (   0.3125000   0.5412659   0.0000000), wk =   0.0468750

     Dense  grid:   858263 G-vectors     FFT dimensions: (  50,  50, 768)

     Smooth grid:   304337 G-vectors     FFT dimensions: (  36,  36, 540)

     Estimated max dynamical RAM per process >     350.14 MB

     Estimated total dynamical RAM >       4.10 GB

     Initial potential from superposition of free atoms

     starting charge      91.9986, renormalised to      92.0000

     negative rho (up, down):  1.801E-04 0.000E+00


     %%%%%%%%%%%%%%%%%%%%%%%%%%%%%%%%%%%%%%%%%%%%%%%%%%%%%%%%%%%%%%%%%%%%%%%%
     %                                                                      %
     % You are using vdW-DF, which was implemented by the Thonhauser group. %
     % Please cite the following two papers that made this development      %
     % possible and the two reviews that describe the various versions:     %
     %                                                                      %
     %   T. Thonhauser et al., PRL 115, 136402 (2015).                      %
     %   T. Thonhauser et al., PRB 76, 125112 (2007).                       %
     %   K. Berland et al., Rep. Prog. Phys. 78, 066501 (2015).             %
     %   D.C. Langreth et al., J. Phys.: Condens. Matter 21, 084203 (2009). %
     %                                                                      %
     % If you are calculating stress with vdW-DF, please also cite:         %
     %                                                                      %
     %   R. Sabatini et al., J. Phys.: Condens. Matter 24, 424209 (2012).   %
     %                                                                      %
     %%%%%%%%%%%%%%%%%%%%%%%%%%%%%%%%%%%%%%%%%%%%%%%%%%%%%%%%%%%%%%%%%%%%%%%%

     %%%%%%%%%%%%%%%%%%%%%%%%%%%%%%%%%%%%%%%%%%%%%%%%%%%%%%%%%%%%%%%%%%%%%%%%
     %                                                                      %
     %  vdW-DF NEWS:                                                        %
     %                                                                      %
     %  * vdW-DF3 is now available. DOI: 10.1021/acs.jctc.0c00471           %
     %    use with input_dft = 'vdW-DF3-opt1' or 'vdW-DF3-opt2'             %
     %                                                                      %
     %  * Unscreened and range-separated hybrid vdW-DF-cx functionals       %
     %    DOI: 10.1063/1.4986522 and 10.1088/1361-648X/ac2ad2               %
     %    use with input_dft = 'vdW-DF-cx0'    and 'vdW-DF-ahcx'            %
     %  * Unscreened and range-separated hybrid vdW-DF2-b86r functionals    %
     %    DOI: 10.1063/1.4986522 and DOI: 10.1103/PhysRevX.12.041003        %
     %    use with input_dft = 'vdW-DF2-br0' and 'vdW-DF2-ahbr'             %
     %                                                                      %
     %%%%%%%%%%%%%%%%%%%%%%%%%%%%%%%%%%%%%%%%%%%%%%%%%%%%%%%%%%%%%%%%%%%%%%%%


     Starting wfcs are   62 randomized atomic wfcs
     Checking if some PAW data can be deallocated... 

     total cpu time spent up to now is       29.9 secs

     per-process dynamical memory:   142.9 Mb

     Self-consistent Calculation

     iteration #  1     ecut=    80.00 Ry     beta= 0.10
     Davidson diagonalization with overlap
     ethr =  1.00E-02,  avg # of iterations =  3.9

     Threshold (ethr) on eigenvalues was too large:
     Diagonalizing with lowered threshold

     Davidson diagonalization with overlap
     ethr =  1.06E-04,  avg # of iterations =  6.2

     negative rho (up, down):  9.437E-05 0.000E+00

     total cpu time spent up to now is      140.8 secs

     total energy              =   -3114.00048926 Ry
     estimated scf accuracy    <       0.12622532 Ry

     iteration #  2     ecut=    80.00 Ry     beta= 0.10
     Davidson diagonalization with overlap
     ethr =  1.37E-04,  avg # of iterations =  1.0

     negative rho (up, down):  6.730E-05 0.000E+00

     total cpu time spent up to now is      181.5 secs

     total energy              =   -3113.95591096 Ry
     estimated scf accuracy    <       0.11394682 Ry

     iteration #  3     ecut=    80.00 Ry     beta= 0.10
     Davidson diagonalization with overlap
     ethr =  1.24E-04,  avg # of iterations =  3.8

     negative rho (up, down):  2.665E-05 0.000E+00

     total cpu time spent up to now is      231.1 secs

     total energy              =   -3113.97092653 Ry
     estimated scf accuracy    <       0.02132166 Ry

     iteration #  4     ecut=    80.00 Ry     beta= 0.10
     Davidson diagonalization with overlap
     ethr =  2.32E-05,  avg # of iterations =  3.1

     negative rho (up, down):  2.972E-06 0.000E+00

     total cpu time spent up to now is      273.5 secs

     total energy              =   -3113.96713525 Ry
     estimated scf accuracy    <       0.01868345 Ry

     iteration #  5     ecut=    80.00 Ry     beta= 0.10
     Davidson diagonalization with overlap
     ethr =  2.03E-05,  avg # of iterations =  4.2

     negative rho (up, down):  2.353E-06 0.000E+00

     total cpu time spent up to now is      323.0 secs

     total energy              =   -3113.96863926 Ry
     estimated scf accuracy    <       0.00257189 Ry

     iteration #  6     ecut=    80.00 Ry     beta= 0.10
     Davidson diagonalization with overlap
     ethr =  2.80E-06,  avg # of iterations =  7.2

     negative rho (up, down):  3.592E-07 0.000E+00

     total cpu time spent up to now is      370.3 secs

     total energy              =   -3113.96788662 Ry
     estimated scf accuracy    <       0.00228988 Ry

     iteration #  7     ecut=    80.00 Ry     beta= 0.10
     Davidson diagonalization with overlap
     ethr =  2.49E-06,  avg # of iterations =  4.9

     negative rho (up, down):  2.821E-07 0.000E+00

     total cpu time spent up to now is      421.2 secs

     total energy              =   -3113.96790042 Ry
     estimated scf accuracy    <       0.00241266 Ry

     iteration #  8     ecut=    80.00 Ry     beta= 0.10
     Davidson diagonalization with overlap
     ethr =  2.49E-06,  avg # of iterations =  1.9

     negative rho (up, down):  7.350E-07 0.000E+00

     total cpu time spent up to now is      466.4 secs

     total energy              =   -3113.96789222 Ry
     estimated scf accuracy    <       0.00095755 Ry

     iteration #  9     ecut=    80.00 Ry     beta= 0.10
     Davidson diagonalization with overlap
     ethr =  1.04E-06,  avg # of iterations =  3.8

     negative rho (up, down):  7.395E-07 0.000E+00

     total cpu time spent up to now is      513.0 secs

     total energy              =   -3113.96792443 Ry
     estimated scf accuracy    <       0.00064213 Ry

     iteration # 10     ecut=    80.00 Ry     beta= 0.10
     Davidson diagonalization with overlap
     ethr =  6.98E-07,  avg # of iterations =  1.4

     negative rho (up, down):  4.295E-08 0.000E+00

     total cpu time spent up to now is      553.6 secs

     total energy              =   -3113.96785245 Ry
     estimated scf accuracy    <       0.00059118 Ry

     iteration # 11     ecut=    80.00 Ry     beta= 0.10
     Davidson diagonalization with overlap
     ethr =  6.43E-07,  avg # of iterations =  3.5

     negative rho (up, down):  7.248E-04 0.000E+00

     total cpu time spent up to now is      597.3 secs

     total energy              =   -3113.96783702 Ry
     estimated scf accuracy    <       0.00039254 Ry

     iteration # 12     ecut=    80.00 Ry     beta= 0.10
     Davidson diagonalization with overlap
     ethr =  4.27E-07,  avg # of iterations =  1.5

     negative rho (up, down):  1.963E-04 0.000E+00

     total cpu time spent up to now is      641.8 secs

     total energy              =   -3113.96781179 Ry
     estimated scf accuracy    <       0.00039348 Ry

     iteration # 13     ecut=    80.00 Ry     beta= 0.10
     Davidson diagonalization with overlap
     ethr =  4.27E-07,  avg # of iterations =  4.5

     negative rho (up, down):  2.942E-03 0.000E+00

     total cpu time spent up to now is      688.6 secs

     total energy              =   -3113.96778569 Ry
     estimated scf accuracy    <       0.00023339 Ry

     iteration # 14     ecut=    80.00 Ry     beta= 0.10
     Davidson diagonalization with overlap
     ethr =  2.54E-07,  avg # of iterations =  6.0

     negative rho (up, down):  2.668E-04 0.000E+00

     total cpu time spent up to now is      738.6 secs

     total energy              =   -3113.96782075 Ry
     estimated scf accuracy    <       0.00016754 Ry

     iteration # 15     ecut=    80.00 Ry     beta= 0.10
     Davidson diagonalization with overlap
     ethr =  1.82E-07,  avg # of iterations =  5.6

     negative rho (up, down):  7.015E-04 0.000E+00

     total cpu time spent up to now is      793.7 secs

     total energy              =   -3113.96782280 Ry
     estimated scf accuracy    <       0.00019883 Ry

     iteration # 16     ecut=    80.00 Ry     beta= 0.10
     Davidson diagonalization with overlap
     ethr =  1.82E-07,  avg # of iterations =  2.7

     negative rho (up, down):  1.388E-03 0.000E+00

     total cpu time spent up to now is      836.7 secs

     total energy              =   -3113.96776228 Ry
     estimated scf accuracy    <       0.00017756 Ry

     iteration # 17     ecut=    80.00 Ry     beta= 0.10
     Davidson diagonalization with overlap
     ethr =  1.82E-07,  avg # of iterations =  5.1

     negative rho (up, down):  3.802E-03 0.000E+00

     total cpu time spent up to now is      885.9 secs

     total energy              =   -3113.96771656 Ry
     estimated scf accuracy    <       0.00014231 Ry

     iteration # 18     ecut=    80.00 Ry     beta= 0.10
     Davidson diagonalization with overlap
     ethr =  1.55E-07,  avg # of iterations =  5.0

     negative rho (up, down):  3.238E-03 0.000E+00

     total cpu time spent up to now is      931.8 secs

     total energy              =   -3113.96776101 Ry
     estimated scf accuracy    <       0.00009938 Ry

     iteration # 19     ecut=    80.00 Ry     beta= 0.10
     Davidson diagonalization with overlap
     ethr =  1.08E-07,  avg # of iterations =  3.3

     negative rho (up, down):  3.878E-03 0.000E+00

     total cpu time spent up to now is      974.6 secs

     total energy              =   -3113.96771225 Ry
     estimated scf accuracy    <       0.00007454 Ry

     iteration # 20     ecut=    80.00 Ry     beta= 0.10
     Davidson diagonalization with overlap
     ethr =  8.10E-08,  avg # of iterations =  4.7

     negative rho (up, down):  4.021E-03 0.000E+00

     total cpu time spent up to now is     1026.4 secs

     total energy              =   -3113.96775412 Ry
     estimated scf accuracy    <       0.00006387 Ry

     iteration # 21     ecut=    80.00 Ry     beta= 0.10
     Davidson diagonalization with overlap
     ethr =  6.94E-08,  avg # of iterations =  1.8

     negative rho (up, down):  2.886E-03 0.000E+00

     total cpu time spent up to now is     1069.8 secs

     total energy              =   -3113.96774711 Ry
     estimated scf accuracy    <       0.00004604 Ry

     iteration # 22     ecut=    80.00 Ry     beta= 0.10
     Davidson diagonalization with overlap
     ethr =  5.00E-08,  avg # of iterations =  4.4

     negative rho (up, down):  1.945E-03 0.000E+00

     total cpu time spent up to now is     1121.2 secs

     total energy              =   -3113.96776708 Ry
     estimated scf accuracy    <       0.00002015 Ry

     iteration # 23     ecut=    80.00 Ry     beta= 0.10
     Davidson diagonalization with overlap
     ethr =  2.19E-08,  avg # of iterations =  5.4

     negative rho (up, down):  1.311E-03 0.000E+00

     total cpu time spent up to now is     1172.1 secs

     total energy              =   -3113.96775835 Ry
     estimated scf accuracy    <       0.00001324 Ry

     iteration # 24     ecut=    80.00 Ry     beta= 0.10
     Davidson diagonalization with overlap
     ethr =  1.44E-08,  avg # of iterations =  2.3

     negative rho (up, down):  9.658E-04 0.000E+00

     total cpu time spent up to now is     1218.9 secs

     total energy              =   -3113.96775900 Ry
     estimated scf accuracy    <       0.00000359 Ry

     iteration # 25     ecut=    80.00 Ry     beta= 0.10
     Davidson diagonalization with overlap
     ethr =  3.90E-09,  avg # of iterations =  3.1

     negative rho (up, down):  2.937E-04 0.000E+00

     total cpu time spent up to now is     1268.8 secs

     total energy              =   -3113.96776368 Ry
     estimated scf accuracy    <       0.00000377 Ry

     iteration # 26     ecut=    80.00 Ry     beta= 0.10
     Davidson diagonalization with overlap
     ethr =  3.90E-09,  avg # of iterations =  5.0

     negative rho (up, down):  2.925E-04 0.000E+00

     total cpu time spent up to now is     1320.3 secs

     total energy              =   -3113.96776373 Ry
     estimated scf accuracy    <       0.00000036 Ry

     iteration # 27     ecut=    80.00 Ry     beta= 0.10
     Davidson diagonalization with overlap
     ethr =  3.93E-10,  avg # of iterations =  2.0

     negative rho (up, down):  2.286E-04 0.000E+00

     total cpu time spent up to now is     1366.9 secs

     total energy              =   -3113.96776378 Ry
     estimated scf accuracy    <       0.00000017 Ry

     iteration # 28     ecut=    80.00 Ry     beta= 0.10
     Davidson diagonalization with overlap
     ethr =  1.86E-10,  avg # of iterations =  2.3

     negative rho (up, down):  1.996E-04 0.000E+00

     total cpu time spent up to now is     1421.8 secs

     total energy              =   -3113.96776555 Ry
     estimated scf accuracy    <       0.00000055 Ry

     iteration # 29     ecut=    80.00 Ry     beta= 0.10
     Davidson diagonalization with overlap
     ethr =  1.86E-10,  avg # of iterations =  2.7

     negative rho (up, down):  1.856E-04 0.000E+00

     total cpu time spent up to now is     1476.1 secs

     total energy              =   -3113.96776546 Ry
     estimated scf accuracy    <       0.00000011 Ry

     iteration # 30     ecut=    80.00 Ry     beta= 0.10
     Davidson diagonalization with overlap
     ethr =  1.23E-10,  avg # of iterations =  1.4

     negative rho (up, down):  1.780E-04 0.000E+00

     total cpu time spent up to now is     1518.1 secs

     End of self-consistent calculation

          k = 0.0000 0.0000 0.0000 ( 38015 PWs)   bands (ev):

   -74.8863 -74.8852 -48.1560 -48.1560 -48.1543 -48.1543 -48.1542 -48.1542
   -48.1515 -48.1515 -48.1261 -48.1261 -48.1245 -48.1245 -48.1233 -48.1233
   -48.1207 -48.1207 -48.1123 -48.1107 -48.1091 -48.1065 -39.0795 -39.0788
   -39.0443 -39.0442 -39.0423 -39.0423 -15.5227 -15.5074 -14.4574 -14.4325
    -7.0439  -6.9204  -3.5435  -3.3577  -3.3576  -3.3517  -3.3517  -3.1415
    -1.4406  -1.1731  -0.6936  -0.6936  -0.6905  -0.6904   0.2015   0.2015
     0.2085   0.2085   3.3872   3.4013   3.4013   3.4132   3.4132

          k = 0.0000 0.0722 0.0000 ( 37975 PWs)   bands (ev):

   -74.8859 -74.8848 -48.1560 -48.1558 -48.1543 -48.1541 -48.1541 -48.1540
   -48.1515 -48.1514 -48.1261 -48.1261 -48.1245 -48.1245 -48.1234 -48.1233
   -48.1207 -48.1207 -48.1122 -48.1106 -48.1090 -48.1064 -39.0777 -39.0770
   -39.0533 -39.0514 -39.0464 -39.0445 -15.4616 -15.4463 -14.4291 -14.4046
    -6.9616  -6.8380  -3.9363  -3.7747  -3.3230  -3.3170  -3.0358  -2.8051
    -1.4852  -1.3011  -0.9959  -0.9437  -0.9228  -0.9189   0.1734   0.2224
     0.4028   0.4096   3.0655   3.0809   3.3582   3.3728   3.5383

          k = 0.0000 0.1443 0.0000 ( 37895 PWs)   bands (ev):

   -74.8848 -74.8837 -48.1559 -48.1553 -48.1543 -48.1541 -48.1536 -48.1534
   -48.1515 -48.1508 -48.1263 -48.1262 -48.1247 -48.1245 -48.1236 -48.1234
   -48.1209 -48.1207 -48.1119 -48.1104 -48.1087 -48.1062 -39.0792 -39.0773
   -39.0725 -39.0718 -39.0524 -39.0505 -15.2825 -15.2673 -14.3464 -14.3232
    -6.7219  -6.5985  -4.4181  -4.2897  -3.2400  -3.2339  -2.8093  -2.6029
    -2.0559  -2.0206  -1.3067  -1.3018  -1.2726  -1.0961   0.1435   0.2660
     0.7058   0.7139   2.4621   2.5626   3.2793   3.2985   3.8476

          k = 0.0000 0.2165 0.0000 ( 37851 PWs)   bands (ev):

   -74.8831 -74.8820 -48.1559 -48.1545 -48.1543 -48.1541 -48.1528 -48.1527
   -48.1515 -48.1500 -48.1266 -48.1263 -48.1250 -48.1246 -48.1238 -48.1235
   -48.1212 -48.1208 -48.1115 -48.1100 -48.1084 -48.1058 -39.1175 -39.1155
   -39.0648 -39.0641 -39.0614 -39.0595 -14.9990 -14.9840 -14.2158 -14.1946
    -6.3532  -6.2328  -4.8544  -4.7526  -3.3094  -3.2918  -3.1770  -3.1709
    -2.5431  -2.3593  -1.5996  -1.5938  -1.3871  -1.2705   0.1537   0.3291
     0.9072   0.9175   2.1002   2.3252   3.2503   3.2741   4.2426

          k = 0.0000 0.2887 0.0000 ( 37919 PWs)   bands (ev):

   -74.8811 -74.8800 -48.1560 -48.1543 -48.1541 -48.1536 -48.1519 -48.1518
   -48.1515 -48.1492 -48.1270 -48.1264 -48.1254 -48.1248 -48.1242 -48.1235
   -48.1215 -48.1209 -48.1111 -48.1096 -48.1079 -48.1054 -39.1624 -39.1604
   -39.0721 -39.0701 -39.0557 -39.0550 -14.6378 -14.6234 -14.0461 -14.0276
    -5.9544  -5.8509  -5.1609  -5.0760  -4.3647  -4.3507  -3.2228  -3.2165
    -2.6940  -2.5521  -1.6980  -1.6907  -1.6686  -1.6034   0.2926   0.4933
     1.0115   1.0224   2.1888   2.5314   3.2928   3.3215   4.7174

          k = 0.0000 0.3608 0.0000 ( 37933 PWs)   bands (ev):

   -74.8791 -74.8779 -48.1560 -48.1543 -48.1542 -48.1528 -48.1515 -48.1511
   -48.1509 -48.1483 -48.1274 -48.1265 -48.1258 -48.1249 -48.1245 -48.1236
   -48.1218 -48.1210 -48.1107 -48.1091 -48.1075 -48.1049 -39.2069 -39.2049
   -39.0827 -39.0807 -39.0465 -39.0459 -14.2525 -14.2394 -13.8394 -13.8239
    -5.9290  -5.8925  -5.3579  -5.3167  -4.9640  -4.8704  -3.3721  -3.3656
    -3.0145  -2.9233  -1.9705  -1.9124  -1.6386  -1.6290   0.6335   0.8217
     1.1057   1.1148   2.5981   3.0026   3.3637   3.3980   4.9832

          k = 0.0000 0.4330 0.0000 ( 37998 PWs)   bands (ev):

   -74.8774 -74.8762 -48.1561 -48.1543 -48.1542 -48.1520 -48.1515 -48.1503
   -48.1502 -48.1476 -48.1277 -48.1266 -48.1261 -48.1250 -48.1247 -48.1237
   -48.1221 -48.1211 -48.1103 -48.1088 -48.1071 -48.1046 -39.2444 -39.2424
   -39.0916 -39.0897 -39.0388 -39.0381 -13.9466 -13.9359 -13.5748 -13.5623
    -6.5283  -6.5172  -5.6347  -5.5791  -4.7276  -4.6650  -3.5368  -3.5302
    -3.3060  -3.2180  -2.1534  -2.1049  -1.5448  -1.5322   1.1149   1.2464
     1.2521   1.2664   3.1065   3.4228   3.4392   3.4623   4.5110

          k = 0.0000 0.5052 0.0000 ( 38048 PWs)   bands (ev):

   -74.8762 -74.8751 -48.1561 -48.1543 -48.1542 -48.1515 -48.1515 -48.1498
   -48.1497 -48.1471 -48.1279 -48.1267 -48.1263 -48.1251 -48.1249 -48.1238
   -48.1223 -48.1212 -48.1101 -48.1085 -48.1069 -48.1043 -39.2693 -39.2673
   -39.0976 -39.0957 -39.0336 -39.0329 -13.7834 -13.7756 -13.3048 -13.2955
    -7.0921  -7.0818  -5.6444  -5.6038  -4.7898  -4.7526  -3.6536  -3.6469
    -3.2418  -3.1502  -2.2643  -2.2307  -1.4847  -1.4698   1.3971   1.4005
     1.6109   1.7110   3.3501   3.4572   3.5004   3.5109   4.3504

          k = 0.0000-0.5774 0.0000 ( 38024 PWs)   bands (ev):

   -74.8758 -74.8747 -48.1562 -48.1543 -48.1542 -48.1515 -48.1514 -48.1497
   -48.1495 -48.1469 -48.1280 -48.1267 -48.1264 -48.1251 -48.1249 -48.1238
   -48.1223 -48.1212 -48.1100 -48.1084 -48.1068 -48.1042 -39.2780 -39.2760
   -39.0997 -39.0978 -39.0318 -39.0311 -13.7329 -13.7264 -13.1894 -13.1821
    -7.3043  -7.2953  -5.5984  -5.5792  -4.9124  -4.8733  -3.6950  -3.6882
    -3.1186  -3.0424  -2.3149  -2.2863  -1.4661  -1.4504   1.4640   1.4672
     1.8579   1.9084   3.3830   3.4681   3.5126   3.5164   4.0924

          k = 0.0625 0.1083 0.0000 ( 37895 PWs)   bands (ev):

   -74.8852 -74.8840 -48.1559 -48.1555 -48.1542 -48.1541 -48.1537 -48.1536
   -48.1515 -48.1510 -48.1263 -48.1261 -48.1247 -48.1245 -48.1235 -48.1234
   -48.1209 -48.1207 -48.1120 -48.1104 -48.1088 -48.1063 -39.0743 -39.0736
   -39.0705 -39.0686 -39.0507 -39.0488 -15.3414 -15.3262 -14.3736 -14.3500
    -6.8002  -6.6766  -4.2890  -4.1518  -3.2718  -3.2659  -2.8397  -2.6112
    -1.7957  -1.7642  -1.3213  -1.3086  -1.1759  -1.0043   0.2230   0.3206
     0.5550   0.5617   2.6953   2.7620   3.2253   3.2318   3.7603

          k = 0.0625 0.1804 0.0000 ( 37885 PWs)   bands (ev):

   -74.8838 -74.8826 -48.1559 -48.1548 -48.1542 -48.1541 -48.1531 -48.1530
   -48.1515 -48.1504 -48.1265 -48.1262 -48.1249 -48.1246 -48.1237 -48.1234
   -48.1211 -48.1208 -48.1117 -48.1101 -48.1085 -48.1060 -39.1018 -39.0999
   -39.0679 -39.0672 -39.0588 -39.0569 -15.1097 -15.0946 -14.2671 -14.2451
    -6.4920  -6.3696  -4.7046  -4.5937  -3.2634  -3.2576  -2.8614  -2.7647
    -2.5076  -2.4218  -1.6753  -1.6385  -1.2101  -1.0499   0.2685   0.3909
     0.6567   0.6827   2.3758   2.5281   3.0740   3.0884   4.0981

          k = 0.0625 0.2526 0.0000 ( 37916 PWs)   bands (ev):

   -74.8819 -74.8808 -48.1559 -48.1542 -48.1541 -48.1540 -48.1523 -48.1522
   -48.1515 -48.1496 -48.1269 -48.1263 -48.1252 -48.1247 -48.1240 -48.1235
   -48.1214 -48.1209 -48.1113 -48.1097 -48.1081 -48.1056 -39.1425 -39.1405
   -39.0699 -39.0680 -39.0592 -39.0585 -14.7855 -14.7708 -14.1179 -14.0983
    -6.0837  -5.9679  -5.0653  -4.9755  -3.9061  -3.8991  -3.2094  -3.1915
    -2.6577  -2.5462  -1.9340  -1.8994  -1.2557  -1.1569   0.2123   0.3503
     0.8442   0.9140   2.2741   2.4969   3.0823   3.1163   4.5311

          k = 0.0625 0.3248 0.0000 ( 37964 PWs)   bands (ev):

   -74.8799 -74.8788 -48.1559 -48.1542 -48.1541 -48.1532 -48.1515 -48.1515
   -48.1514 -48.1488 -48.1272 -48.1265 -48.1256 -48.1249 -48.1243 -48.1236
   -48.1217 -48.1210 -48.1109 -48.1093 -48.1077 -48.1051 -39.1862 -39.1842
   -39.0815 -39.0795 -39.0502 -39.0495 -14.4055 -14.3917 -13.9340 -13.9173
    -5.7914  -5.7166  -5.2268  -5.1556  -4.8448  -4.8048  -3.4423  -3.4240
    -2.7550  -2.6744  -2.2512  -2.2411  -1.2954  -1.2363   0.3174   0.4653
     1.0990   1.1629   2.4126   2.6584   3.2020   3.3050   5.0296

          k = 0.0625 0.3969 0.0000 ( 37981 PWs)   bands (ev):

   -74.8780 -74.8769 -48.1559 -48.1542 -48.1541 -48.1524 -48.1514 -48.1507
   -48.1506 -48.1480 -48.1276 -48.1266 -48.1259 -48.1250 -48.1246 -48.1237
   -48.1220 -48.1211 -48.1105 -48.1089 -48.1073 -48.1047 -39.2262 -39.2242
   -39.0922 -39.0903 -39.0417 -39.0411 -14.0469 -14.0349 -13.7061 -13.6923
    -6.1416  -6.1308  -5.5429  -5.4889  -4.8154  -4.7268  -3.6938  -3.6705
    -3.0060  -2.9563  -2.4844  -2.4654  -1.2776  -1.2431   0.6222   0.7417
     1.3708   1.4252   2.7134   2.8823   3.3819   3.5828   4.8878

          k = 0.0625 0.4691 0.0000 ( 38057 PWs)   bands (ev):

   -74.8766 -74.8755 -48.1560 -48.1541 -48.1541 -48.1518 -48.1514 -48.1501
   -48.1500 -48.1474 -48.1278 -48.1267 -48.1262 -48.1251 -48.1248 -48.1238
   -48.1222 -48.1212 -48.1102 -48.1086 -48.1070 -48.1044 -39.2567 -39.2547
   -39.1004 -39.0985 -39.0353 -39.0346 -13.8175 -13.8084 -13.4246 -13.4139
    -6.7938  -6.7829  -5.6430  -5.5952  -4.6778  -4.6355  -3.8105  -3.7831
    -3.1783  -3.1203  -2.5808  -2.5630  -1.2739  -1.2571   1.0215   1.0946
     1.6424   1.6941   2.9793   3.0509   3.5432   3.6789   4.5790

          k = 0.0625 0.5413 0.0000 ( 38034 PWs)   bands (ev):

   -74.8758 -74.8747 -48.1560 -48.1541 -48.1541 -48.1515 -48.1514 -48.1498
   -48.1497 -48.1471 -48.1280 -48.1267 -48.1263 -48.1251 -48.1249 -48.1238
   -48.1223 -48.1212 -48.1100 -48.1084 -48.1068 -48.1042 -39.2731 -39.2711
   -39.1048 -39.1029 -39.0318 -39.0311 -13.7167 -13.7099 -13.2166 -13.2088
    -7.1924  -7.1830  -5.6066  -5.5800  -4.8330  -4.7948  -3.8113  -3.8005
    -3.1048  -3.0423  -2.6271  -2.6180  -1.2974  -1.2877   1.3535   1.3775
     1.8151   1.8601   3.1498   3.1922   3.4404   3.5926   4.3853

          k = 0.1250 0.2165 0.0000 ( 37933 PWs)   bands (ev):

   -74.8822 -74.8810 -48.1558 -48.1542 -48.1542 -48.1540 -48.1525 -48.1524
   -48.1514 -48.1498 -48.1268 -48.1263 -48.1252 -48.1247 -48.1239 -48.1236
   -48.1213 -48.1209 -48.1114 -48.1098 -48.1082 -48.1056 -39.1342 -39.1323
   -39.0706 -39.0687 -39.0603 -39.0596 -14.8361 -14.8213 -14.1425 -14.1225
    -6.1300  -6.0107  -5.0187  -4.9264  -3.7387  -3.7337  -3.0291  -2.9324
    -2.9011  -2.8951  -1.9525  -1.8762  -1.1065  -0.9616   0.2549   0.2990
     0.6411   0.7950   2.6131   2.6826   2.7006   2.8432   4.4702

          k = 0.1250 0.2887 0.0000 ( 37936 PWs)   bands (ev):

   -74.8803 -74.8792 -48.1557 -48.1540 -48.1539 -48.1535 -48.1518 -48.1517
   -48.1513 -48.1491 -48.1271 -48.1264 -48.1255 -48.1248 -48.1242 -48.1237
   -48.1216 -48.1210 -48.1110 -48.1094 -48.1078 -48.1052 -39.1715 -39.1695
   -39.0843 -39.0824 -39.0521 -39.0514 -14.4866 -14.4725 -13.9828 -13.9654
    -5.7089  -5.6060  -5.2660  -5.1886  -4.5502  -4.5390  -3.4612  -3.4192
    -2.9831  -2.9671  -2.2217  -2.1756  -0.9826  -0.8717   0.0468   0.1492
     1.0274   1.1607   2.3811   2.4120   2.9708   3.2236   4.9397

          k = 0.1250 0.3608 0.0000 ( 38000 PWs)   bands (ev):

   -74.8785 -74.8773 -48.1557 -48.1539 -48.1538 -48.1528 -48.1512 -48.1511
   -48.1510 -48.1484 -48.1274 -48.1266 -48.1258 -48.1250 -48.1245 -48.1238
   -48.1219 -48.1212 -48.1106 -48.1090 -48.1074 -48.1048 -39.2082 -39.2063
   -39.0985 -39.0965 -39.0437 -39.0430 -14.1110 -14.0982 -13.7935 -13.7790
    -5.7358  -5.7113  -5.3919  -5.3541  -4.9553  -4.8499  -3.8417  -3.8123
    -3.0867  -3.0717  -2.6447  -2.6230  -0.8881  -0.8123   0.1459   0.2684
     1.4312   1.5167   2.2864   2.3462   3.3143   3.6053   5.4075

          k = 0.1250 0.4330 0.0000 ( 38048 PWs)   bands (ev):

   -74.8769 -74.8758 -48.1557 -48.1538 -48.1538 -48.1522 -48.1511 -48.1505
   -48.1504 -48.1478 -48.1277 -48.1267 -48.1261 -48.1251 -48.1247 -48.1239
   -48.1221 -48.1213 -48.1102 -48.1087 -48.1070 -48.1045 -39.2391 -39.2371
   -39.1106 -39.1086 -39.0366 -39.0359 -13.8166 -13.8064 -13.5477 -13.5362
    -6.3591  -6.3490  -5.5900  -5.5413  -4.5957  -4.5263  -4.0954  -4.0580
    -3.2148  -3.2033  -3.0147  -2.9930  -0.8938  -0.8466   0.5055   0.6102
     1.7373   1.7780   2.3800   2.4546   3.6137   3.8427   5.0775

          k = 0.1250 0.5052 0.0000 ( 38027 PWs)   bands (ev):

   -74.8758 -74.8747 -48.1556 -48.1538 -48.1537 -48.1518 -48.1510 -48.1501
   -48.1500 -48.1474 -48.1279 -48.1268 -48.1262 -48.1252 -48.1248 -48.1239
   -48.1222 -48.1213 -48.1100 -48.1084 -48.1068 -48.1043 -39.2596 -39.2576
   -39.1186 -39.1167 -39.0318 -39.0311 -13.6690 -13.6616 -13.2898 -13.2813
    -6.8797  -6.8700  -5.6047  -5.5721  -4.6388  -4.6035  -4.0615  -4.0266
    -3.3041  -3.2927  -3.1249  -3.0913  -0.9746  -0.9417   0.9777   1.0460
     1.8288   1.8486   2.5770   2.6452   3.6242   3.7728   4.8578

          k = 0.1250 0.5774 0.0000 ( 37968 PWs)   bands (ev):

   -74.8755 -74.8743 -48.1556 -48.1537 -48.1537 -48.1516 -48.1510 -48.1500
   -48.1498 -48.1472 -48.1279 -48.1268 -48.1263 -48.1252 -48.1249 -48.1240
   -48.1223 -48.1213 -48.1099 -48.1083 -48.1067 -48.1042 -39.2668 -39.2648
   -39.1215 -39.1195 -39.0301 -39.0295 -13.6235 -13.6174 -13.1813 -13.1748
    -7.0725  -7.0635  -5.5798  -5.5644  -4.7454  -4.7076  -4.0327  -4.0121
    -3.3231  -3.3129  -3.0945  -3.0603  -1.0255  -0.9943   1.2991   1.3129
     1.7327   1.7606   2.7383   2.7518   3.4915   3.6464   4.8246

          k = 0.1875 0.3248 0.0000 ( 37987 PWs)   bands (ev):

   -74.8786 -74.8775 -48.1555 -48.1538 -48.1537 -48.1530 -48.1513 -48.1512
   -48.1510 -48.1486 -48.1274 -48.1266 -48.1258 -48.1250 -48.1244 -48.1238
   -48.1218 -48.1212 -48.1106 -48.1090 -48.1074 -48.1049 -39.2001 -39.1982
   -39.1025 -39.1006 -39.0444 -39.0437 -14.1331 -14.1200 -13.8238 -13.8092
    -5.4613  -5.4082  -5.3950  -5.3753  -5.0269  -4.9293  -3.8487  -3.8089
    -3.3886  -3.3821  -2.5193  -2.5060  -0.6528  -0.5496  -0.1139  -0.0008
     1.4269   1.5358   2.1155   2.1287   3.2997   3.6095   5.4341

          k = 0.1875 0.3969 0.0000 ( 38014 PWs)   bands (ev):

   -74.8770 -74.8759 -48.1553 -48.1535 -48.1535 -48.1526 -48.1509 -48.1509
   -48.1507 -48.1482 -48.1276 -48.1267 -48.1260 -48.1251 -48.1246 -48.1240
   -48.1220 -48.1213 -48.1103 -48.1087 -48.1071 -48.1045 -39.2248 -39.2228
   -39.1209 -39.1190 -39.0373 -39.0366 -13.7893 -13.7782 -13.6422 -13.6305
    -5.9401  -5.9326  -5.5421  -5.4958  -4.6583  -4.5584  -4.1968  -4.1643
    -3.7340  -3.7257  -2.9194  -2.9126  -0.4718  -0.4002   0.0321   0.1372
     1.7589   1.8210   2.0124   2.0667   3.6506   3.9228   5.5828

          k = 0.1875 0.4691 0.0000 ( 38010 PWs)   bands (ev):

   -74.8758 -74.8747 -48.1551 -48.1533 -48.1533 -48.1522 -48.1507 -48.1506
   -48.1503 -48.1478 -48.1278 -48.1269 -48.1261 -48.1253 -48.1247 -48.1241
   -48.1221 -48.1214 -48.1100 -48.1085 -48.1068 -48.1043 -39.2427 -39.2407
   -39.1358 -39.1339 -39.0318 -39.0312 -13.5939 -13.5857 -13.3896 -13.3807
    -6.4555  -6.4473  -5.5845  -5.5527  -4.4535  -4.4228  -4.2666  -4.2045
    -3.9880  -3.9742  -3.2147  -3.2128  -0.5523  -0.5045   0.4856   0.5572
     1.8391   1.8608   2.1534   2.2499   3.8268   3.9631   5.2402

          k = 0.1875 0.5413 0.0000 ( 38010 PWs)   bands (ev):

   -74.8752 -74.8741 -48.1551 -48.1532 -48.1532 -48.1520 -48.1505 -48.1504
   -48.1501 -48.1477 -48.1278 -48.1270 -48.1262 -48.1253 -48.1248 -48.1241
   -48.1222 -48.1215 -48.1099 -48.1083 -48.1067 -48.1041 -39.2521 -39.2501
   -39.1442 -39.1422 -39.0289 -39.0282 -13.5141 -13.5082 -13.2046 -13.1984
    -6.7556  -6.7466  -5.5837  -5.5681  -4.5838  -4.5514  -4.1894  -4.1590
    -4.0666  -4.0512  -3.2729  -3.2611  -0.6569  -0.6162   0.9746   1.0069
     1.6134   1.6262   2.4344   2.5110   3.6144   3.7636   5.1879

          k = 0.2500 0.4330 0.0000 ( 38031 PWs)   bands (ev):

   -74.8758 -74.8747 -48.1549 -48.1531 -48.1530 -48.1525 -48.1508 -48.1507
   -48.1503 -48.1481 -48.1277 -48.1269 -48.1261 -48.1253 -48.1247 -48.1241
   -48.1221 -48.1215 -48.1100 -48.1085 -48.1068 -48.1043 -39.2339 -39.2319
   -39.1448 -39.1429 -39.0318 -39.0312 -13.5083 -13.5005 -13.4849 -13.4758
    -6.1994  -6.1955  -5.5800  -5.5510  -4.4414  -4.4137  -4.3920  -4.3598
    -4.1977  -4.1423  -3.2950  -3.2749  -0.1008  -0.0233   0.0068   0.0457
     1.8119   1.8571   2.0331   2.1270   3.9110   4.0548   5.3766

          k = 0.2500 0.5052 0.0000 ( 38019 PWs)   bands (ev):

   -74.8750 -74.8739 -48.1546 -48.1528 -48.1527 -48.1524 -48.1508 -48.1507
   -48.1499 -48.1481 -48.1277 -48.1271 -48.1261 -48.1254 -48.1248 -48.1242
   -48.1222 -48.1216 -48.1098 -48.1083 -48.1067 -48.1041 -39.2361 -39.2341
   -39.1646 -39.1627 -39.0282 -39.0275 -13.4073 -13.4013 -13.2697 -13.2636
    -6.3723  -6.3655  -5.6018  -5.5874  -4.8140  -4.8073  -4.3983  -4.3625
    -4.0690  -4.0278  -3.5553  -3.5400  -0.1794  -0.1320   0.4275   0.4575
     1.5575   1.5612   2.3336   2.4836   3.8112   3.8919   5.0806

          k = 0.2500 0.5774 0.0000 ( 38023 PWs)   bands (ev):

   -74.8748 -74.8736 -48.1544 -48.1527 -48.1525 -48.1523 -48.1508 -48.1507
   -48.1497 -48.1481 -48.1277 -48.1271 -48.1261 -48.1255 -48.1248 -48.1243
   -48.1222 -48.1216 -48.1098 -48.1082 -48.1066 -48.1041 -39.2357 -39.2337
   -39.1728 -39.1708 -39.0269 -39.0263 -13.3713 -13.3666 -13.1890 -13.1845
    -6.4314  -6.4225  -5.6055  -5.5976  -4.9820  -4.9753  -4.2465  -4.2157
    -4.2088  -4.1806  -3.5692  -3.5610  -0.2374  -0.1948   0.7862   0.8120
     1.2193   1.2280   2.6476   2.7237   3.5711   3.6506   4.9841

          k = 0.3125 0.5413 0.0000 ( 38095 PWs)   bands (ev):

   -74.8746 -74.8735 -48.1540 -48.1529 -48.1522 -48.1520 -48.1512 -48.1511
   -48.1493 -48.1485 -48.1276 -48.1272 -48.1260 -48.1256 -48.1249 -48.1243
   -48.1222 -48.1217 -48.1098 -48.1082 -48.1066 -48.1041 -39.2208 -39.2188
   -39.1920 -39.1900 -39.0262 -39.0256 -13.2838 -13.2796 -13.2215 -13.2176
    -6.1203  -6.1128  -5.6336  -5.6284  -5.4206  -5.4130  -4.2442  -4.2087
    -3.9414  -3.9221  -3.9079  -3.8764   0.1954   0.2491   0.3900   0.4245
     1.0729   1.0784   2.8156   2.9712   3.4760   3.5744   4.8211

     the Fermi energy is    -0.0172 ev

!    total energy              =   -3113.96776571 Ry
     total all-electron energy =    -83998.692330 Ry
     estimated scf accuracy    <       0.00000001 Ry
     smearing contrib. (-TS)   =       0.00045355 Ry
     internal energy E=F+TS    =   -3113.96821926 Ry

     The total energy is F=E-TS. E is the sum of the following terms:
     one-electron contribution =  -26887.22842431 Ry
     hartree contribution      =   13430.75606864 Ry
     xc contribution           =    -193.58157223 Ry
     ewald contribution        =   12297.39955282 Ry
     one-center paw contrib.   =   -1761.31384418 Ry

     convergence has been achieved in  30 iterations

     Writing all to output data dir ./tmp/cleave_006/wse2_cleave_006.save/ :
     XML data file, charge density, pseudopotentials, collected wavefunctions

     init_run     :     29.32s CPU     29.67s WALL (       1 calls)
     electrons    :   1463.98s CPU   1488.29s WALL (       1 calls)

     Called by init_run:
     wfcinit      :     16.42s CPU     16.48s WALL (       1 calls)
     potinit      :     11.85s CPU     11.95s WALL (       1 calls)
     hinit0       :      0.10s CPU      0.11s WALL (       1 calls)

     Called by electrons:
     c_bands      :   1233.93s CPU   1245.95s WALL (      31 calls)
     sum_band     :    165.03s CPU    171.19s WALL (      31 calls)
     v_of_rho     :     37.30s CPU     38.93s WALL (      31 calls)
     newd         :     22.21s CPU     26.78s WALL (      31 calls)
     PAW_pot      :      3.14s CPU      3.17s WALL (      31 calls)
     mix_rho      :     14.33s CPU     14.50s WALL (      31 calls)
     vdW_kernel   :     10.87s CPU     10.87s WALL (       1 calls)

     Called by c_bands:
     init_us_2    :      6.61s CPU      6.62s WALL (    1890 calls)
     cegterg      :   1209.42s CPU   1220.90s WALL (     930 calls)

     Called by *egterg:
     cdiaghg      :     14.39s CPU     14.42s WALL (    4313 calls)
     h_psi        :    516.60s CPU    520.29s WALL (    4373 calls)
     s_psi        :    136.45s CPU    136.57s WALL (    4373 calls)
     g_psi        :      1.40s CPU      1.40s WALL (    3413 calls)

     Called by h_psi:
     h_psi:calbec :    183.91s CPU    185.74s WALL (    4373 calls)
     vloc_psi     :    180.16s CPU    181.85s WALL (    4373 calls)
                                        0.00s GPU  (    4373 calls)
     add_vuspsi   :    150.43s CPU    150.58s WALL (    4373 calls)

     General routines
     calbec       :    267.62s CPU    270.23s WALL (    5303 calls)
     fft          :     17.24s CPU     17.52s WALL (    1952 calls)
     ffts         :      5.50s CPU      5.58s WALL (    3629 calls)
     fftw         :    195.95s CPU    197.84s WALL (  277564 calls)
     interpolate  :      0.33s CPU      0.33s WALL (      31 calls)

     Parallel routines

     PWSCF        :  24m54.10s CPU  25m19.07s WALL


   This run was terminated on:  14:17:51  18Jun2026            

=------------------------------------------------------------------------------=
   JOB DONE.
=------------------------------------------------------------------------------=
Note: The following floating-point exceptions are signalling: IEEE_UNDERFLOW_FLAG IEEE_DENORMAL
Note: The following floating-point exceptions are signalling: IEEE_UNDERFLOW_FLAG IEEE_DENORMAL
Note: The following floating-point exceptions are signalling: IEEE_UNDERFLOW_FLAG IEEE_DENORMAL
Note: The following floating-point exceptions are signalling: IEEE_UNDERFLOW_FLAG IEEE_DENORMAL
Note: The following floating-point exceptions are signalling: IEEE_UNDERFLOW_FLAG IEEE_DENORMAL
Note: The following floating-point exceptions are signalling: IEEE_UNDERFLOW_FLAG IEEE_DENORMAL
Note: The following floating-point exceptions are signalling: IEEE_UNDERFLOW_FLAG IEEE_DENORMAL
Note: The following floating-point exceptions are signalling: IEEE_UNDERFLOW_FLAG IEEE_DENORMAL
Note: The following floating-point exceptions are signalling: IEEE_UNDERFLOW_FLAG IEEE_DENORMAL
Note: The following floating-point exceptions are signalling: IEEE_UNDERFLOW_FLAG IEEE_DENORMAL
Note: The following floating-point exceptions are signalling: IEEE_UNDERFLOW_FLAG IEEE_DENORMAL
Note: The following floating-point exceptions are signalling: IEEE_UNDERFLOW_FLAG IEEE_DENORMAL
