
     Program PWSCF v.7.5 starts on 18Jun2026 at 21: 7:47 

     This program is part of the open-source Quantum ESPRESSO suite
     for quantum simulation of materials; please cite
         "P. Giannozzi et al., J. Phys.:Condens. Matter 21 395502 (2009);
         "P. Giannozzi et al., J. Phys.:Condens. Matter 29 465901 (2017);
         "P. Giannozzi et al., J. Chem. Phys. 152 154105 (2020);
          URL http://www.quantum-espresso.org", 
     in publications or presentations arising from this work. More details at
     http://www.quantum-espresso.org/quote

     Parallel version (MPI), running on    12 processors

     MPI processes distributed on     1 nodes
     20982 MiB available memory on the printing compute node when the environment starts

     Waiting for input...
     Reading input from standard input

     Current dimensions of program PWSCF are:
     Max number of different atomic species (ntypx) = 10
     Max number of k-points (npk) =  40000
     Max angular momentum in pseudopotentials (lmaxx) =  4
     file W.pbe-spn-kjpaw_psl.1.0.0.UPF: wavefunction(s)  6S 5P 5D renormalized
     file Se.pbe-dn-kjpaw_psl.1.0.0.UPF: wavefunction(s)  4S 4P 3D renormalized

     IMPORTANT: XC functional enforced from input :
     Exchange-correlation= VDW-DF2-B86R
                           (   1   4  26   0   2   0   0)
     Any further DFT definition will be discarded
     Please, verify this is what you really want


     R & G space division:  proc/nbgrp/npool/nimage =      12
     Subspace diagonalization in iterative solution of the eigenvalue problem:
     a serial algorithm will be used


     Parallelization info
     --------------------
     sticks:   dense  smooth     PW     G-vecs:    dense   smooth      PW
     Min         139      70     20                71489    25322    3895
     Max         140      71     22                71558    25395    3945
     Sum        1675     847    253               858263   304337   46813

     Using Slab Decomposition



     bravais-lattice index     =            4
     lattice parameter (alat)  =       6.1983  a.u.
     unit-cell volume          =    3143.7277 (a.u.)^3
     number of atoms/cell      =            6
     number of atomic types    =            2
     number of electrons       =        92.00
     number of Kohn-Sham states=           55
     kinetic-energy cutoff     =      80.0000  Ry
     charge density cutoff     =     640.0000  Ry
     scf convergence threshold =      1.0E-07
     mixing beta               =       0.1000
     number of iterations used =           12  local-TF  mixing
     Exchange-correlation= VDW-DF2-B86R
                           (   1   4  26   0   2   0   0)

     celldm(1)=   6.198302  celldm(2)=   0.000000  celldm(3)=  15.243902
     celldm(4)=   0.000000  celldm(5)=   0.000000  celldm(6)=   0.000000

     crystal axes: (cart. coord. in units of alat)
               a(1) = (   1.000000   0.000000   0.000000 )  
               a(2) = (  -0.500000   0.866025   0.000000 )  
               a(3) = (   0.000000   0.000000  15.243902 )  

     reciprocal axes: (cart. coord. in units 2 pi/alat)
               b(1) = (  1.000000  0.577350 -0.000000 )  
               b(2) = (  0.000000  1.154701  0.000000 )  
               b(3) = (  0.000000 -0.000000  0.065600 )  


     PseudoPot. # 1 for W  read from file:
     ./pseudo/W.pbe-spn-kjpaw_psl.1.0.0.UPF
     MD5 check sum: 03c3df5b60893f488392c7401945500a
     Pseudo is Projector augmented-wave + core cor, Zval = 14.0
     Generated using &quot;atomic&quot; code by A. Dal Corso  v.6.2.2
     Shape of augmentation charge: PSQ
     Using radial grid of 1273 points,  6 beta functions with: 
                l(1) =   0
                l(2) =   0
                l(3) =   1
                l(4) =   1
                l(5) =   2
                l(6) =   2
     Q(r) pseudized with 0 coefficients 


     PseudoPot. # 2 for Se read from file:
     ./pseudo/Se.pbe-dn-kjpaw_psl.1.0.0.UPF
     MD5 check sum: ac240dd2bae32a30e0bf3a38df9c8785
     Pseudo is Projector augmented-wave + core cor, Zval = 16.0
     Generated using &quot;atomic&quot; code by A. Dal Corso  v.6.3
     Shape of augmentation charge: PSQ
     Using radial grid of 1211 points,  6 beta functions with: 
                l(1) =   0
                l(2) =   0
                l(3) =   1
                l(4) =   1
                l(5) =   2
                l(6) =   2
     Q(r) pseudized with 0 coefficients 


     atomic species   valence    mass     pseudopotential
     W                14.00   183.84000     W ( 1.00)
     Se               16.00    78.96000     Se( 1.00)

      6 Sym. Ops. (no inversion) found



   Cartesian axes

     site n.     atom                  positions (alat units)
         1        Se     tau(   1) = (  -0.0000005   0.5773506   6.1149390  )
         2        W      tau(   2) = (   0.0000000   0.0000000   6.6383232  )
         3        Se     tau(   3) = (   0.5000005   0.2886748   7.1618445  )
         4        Se     tau(   4) = (  -0.0000005   0.5773506  10.0328506  )
         5        W      tau(   5) = (   0.5000005   0.2886748  10.5560976  )
         6        Se     tau(   6) = (   0.0000000   0.0000000  11.0801829  )

     number of k points=    30  Methfessel-Paxton smearing, width (Ry)=  0.0200
                       cart. coord. in units 2pi/alat
        k(    1) = (   0.0000000   0.0000000   0.0000000), wk =   0.0078125
        k(    2) = (   0.0000000   0.0721688   0.0000000), wk =   0.0468750
        k(    3) = (   0.0000000   0.1443376   0.0000000), wk =   0.0468750
        k(    4) = (   0.0000000   0.2165064   0.0000000), wk =   0.0468750
        k(    5) = (   0.0000000   0.2886751   0.0000000), wk =   0.0468750
        k(    6) = (   0.0000000   0.3608439   0.0000000), wk =   0.0468750
        k(    7) = (   0.0000000   0.4330127   0.0000000), wk =   0.0468750
        k(    8) = (   0.0000000   0.5051815   0.0000000), wk =   0.0468750
        k(    9) = (   0.0000000  -0.5773503   0.0000000), wk =   0.0234375
        k(   10) = (   0.0625000   0.1082532   0.0000000), wk =   0.0468750
        k(   11) = (   0.0625000   0.1804220   0.0000000), wk =   0.0937500
        k(   12) = (   0.0625000   0.2525907   0.0000000), wk =   0.0937500
        k(   13) = (   0.0625000   0.3247595   0.0000000), wk =   0.0937500
        k(   14) = (   0.0625000   0.3969283   0.0000000), wk =   0.0937500
        k(   15) = (   0.0625000   0.4690971   0.0000000), wk =   0.0937500
        k(   16) = (   0.0625000   0.5412659   0.0000000), wk =   0.0937500
        k(   17) = (   0.1250000   0.2165064   0.0000000), wk =   0.0468750
        k(   18) = (   0.1250000   0.2886751   0.0000000), wk =   0.0937500
        k(   19) = (   0.1250000   0.3608439   0.0000000), wk =   0.0937500
        k(   20) = (   0.1250000   0.4330127   0.0000000), wk =   0.0937500
        k(   21) = (   0.1250000   0.5051815   0.0000000), wk =   0.0937500
        k(   22) = (   0.1250000   0.5773503   0.0000000), wk =   0.0468750
        k(   23) = (   0.1875000   0.3247595   0.0000000), wk =   0.0468750
        k(   24) = (   0.1875000   0.3969283   0.0000000), wk =   0.0937500
        k(   25) = (   0.1875000   0.4690971   0.0000000), wk =   0.0937500
        k(   26) = (   0.1875000   0.5412659   0.0000000), wk =   0.0937500
        k(   27) = (   0.2500000   0.4330127   0.0000000), wk =   0.0468750
        k(   28) = (   0.2500000   0.5051815   0.0000000), wk =   0.0937500
        k(   29) = (   0.2500000   0.5773503   0.0000000), wk =   0.0468750
        k(   30) = (   0.3125000   0.5412659   0.0000000), wk =   0.0468750

     Dense  grid:   858263 G-vectors     FFT dimensions: (  50,  50, 768)

     Smooth grid:   304337 G-vectors     FFT dimensions: (  36,  36, 540)

     Estimated max dynamical RAM per process >     350.14 MB

     Estimated total dynamical RAM >       4.10 GB

     Initial potential from superposition of free atoms

     starting charge      91.9986, renormalised to      92.0000

     negative rho (up, down):  1.509E-04 0.000E+00


     %%%%%%%%%%%%%%%%%%%%%%%%%%%%%%%%%%%%%%%%%%%%%%%%%%%%%%%%%%%%%%%%%%%%%%%%
     %                                                                      %
     % You are using vdW-DF, which was implemented by the Thonhauser group. %
     % Please cite the following two papers that made this development      %
     % possible and the two reviews that describe the various versions:     %
     %                                                                      %
     %   T. Thonhauser et al., PRL 115, 136402 (2015).                      %
     %   T. Thonhauser et al., PRB 76, 125112 (2007).                       %
     %   K. Berland et al., Rep. Prog. Phys. 78, 066501 (2015).             %
     %   D.C. Langreth et al., J. Phys.: Condens. Matter 21, 084203 (2009). %
     %                                                                      %
     % If you are calculating stress with vdW-DF, please also cite:         %
     %                                                                      %
     %   R. Sabatini et al., J. Phys.: Condens. Matter 24, 424209 (2012).   %
     %                                                                      %
     %%%%%%%%%%%%%%%%%%%%%%%%%%%%%%%%%%%%%%%%%%%%%%%%%%%%%%%%%%%%%%%%%%%%%%%%

     %%%%%%%%%%%%%%%%%%%%%%%%%%%%%%%%%%%%%%%%%%%%%%%%%%%%%%%%%%%%%%%%%%%%%%%%
     %                                                                      %
     %  vdW-DF NEWS:                                                        %
     %                                                                      %
     %  * vdW-DF3 is now available. DOI: 10.1021/acs.jctc.0c00471           %
     %    use with input_dft = 'vdW-DF3-opt1' or 'vdW-DF3-opt2'             %
     %                                                                      %
     %  * Unscreened and range-separated hybrid vdW-DF-cx functionals       %
     %    DOI: 10.1063/1.4986522 and 10.1088/1361-648X/ac2ad2               %
     %    use with input_dft = 'vdW-DF-cx0'    and 'vdW-DF-ahcx'            %
     %  * Unscreened and range-separated hybrid vdW-DF2-b86r functionals    %
     %    DOI: 10.1063/1.4986522 and DOI: 10.1103/PhysRevX.12.041003        %
     %    use with input_dft = 'vdW-DF2-br0' and 'vdW-DF2-ahbr'             %
     %                                                                      %
     %%%%%%%%%%%%%%%%%%%%%%%%%%%%%%%%%%%%%%%%%%%%%%%%%%%%%%%%%%%%%%%%%%%%%%%%


     Starting wfcs are   62 randomized atomic wfcs
     Checking if some PAW data can be deallocated... 

     total cpu time spent up to now is       29.2 secs

     per-process dynamical memory:   142.9 Mb

     Self-consistent Calculation

     iteration #  1     ecut=    80.00 Ry     beta= 0.10
     Davidson diagonalization with overlap
     ethr =  1.00E-02,  avg # of iterations =  4.0

     Threshold (ethr) on eigenvalues was too large:
     Diagonalizing with lowered threshold

     Davidson diagonalization with overlap
     ethr =  1.09E-04,  avg # of iterations =  6.4

     negative rho (up, down):  7.668E-05 0.000E+00

     total cpu time spent up to now is      134.2 secs

     total energy              =   -3113.99236708 Ry
     estimated scf accuracy    <       0.12900682 Ry

     iteration #  2     ecut=    80.00 Ry     beta= 0.10
     Davidson diagonalization with overlap
     ethr =  1.40E-04,  avg # of iterations =  1.0

     negative rho (up, down):  1.767E-05 0.000E+00

     total cpu time spent up to now is      172.6 secs

     total energy              =   -3113.94861868 Ry
     estimated scf accuracy    <       0.11800467 Ry

     iteration #  3     ecut=    80.00 Ry     beta= 0.10
     Davidson diagonalization with overlap
     ethr =  1.28E-04,  avg # of iterations =  4.1

     negative rho (up, down):  2.913E-06 0.000E+00

     total cpu time spent up to now is      222.8 secs

     total energy              =   -3113.96266134 Ry
     estimated scf accuracy    <       0.02449081 Ry

     iteration #  4     ecut=    80.00 Ry     beta= 0.10
     Davidson diagonalization with overlap
     ethr =  2.66E-05,  avg # of iterations =  3.0

     negative rho (up, down):  2.445E-08 0.000E+00

     total cpu time spent up to now is      265.6 secs

     total energy              =   -3113.95789437 Ry
     estimated scf accuracy    <       0.02202597 Ry

     iteration #  5     ecut=    80.00 Ry     beta= 0.10
     Davidson diagonalization with overlap
     ethr =  2.39E-05,  avg # of iterations =  3.6

     negative rho (up, down):  2.053E-08 0.000E+00

     total cpu time spent up to now is      313.4 secs

     total energy              =   -3113.95973248 Ry
     estimated scf accuracy    <       0.00328272 Ry

     iteration #  6     ecut=    80.00 Ry     beta= 0.10
     Davidson diagonalization with overlap
     ethr =  3.57E-06,  avg # of iterations =  4.8

     negative rho (up, down):  2.469E-08 0.000E+00

     total cpu time spent up to now is      359.2 secs

     total energy              =   -3113.95902051 Ry
     estimated scf accuracy    <       0.00309368 Ry

     iteration #  7     ecut=    80.00 Ry     beta= 0.10
     Davidson diagonalization with overlap
     ethr =  3.36E-06,  avg # of iterations =  2.4

     negative rho (up, down):  2.829E-07 0.000E+00

     total cpu time spent up to now is      406.0 secs

     total energy              =   -3113.95830685 Ry
     estimated scf accuracy    <       0.00309456 Ry

     iteration #  8     ecut=    80.00 Ry     beta= 0.10
     Davidson diagonalization with overlap
     c_bands:  1 eigenvalues not converged
     c_bands:  1 eigenvalues not converged
     ethr =  3.36E-06,  avg # of iterations =  6.9

     negative rho (up, down):  1.024E-08 0.000E+00

     total cpu time spent up to now is      455.9 secs

     total energy              =   -3113.95843532 Ry
     estimated scf accuracy    <       0.00085497 Ry

     iteration #  9     ecut=    80.00 Ry     beta= 0.10
     Davidson diagonalization with overlap
     ethr =  9.29E-07,  avg # of iterations =  2.3

     negative rho (up, down):  2.208E-08 0.000E+00

     total cpu time spent up to now is      502.8 secs

     total energy              =   -3113.95828824 Ry
     estimated scf accuracy    <       0.00096830 Ry

     iteration # 10     ecut=    80.00 Ry     beta= 0.10
     Davidson diagonalization with overlap
     ethr =  9.29E-07,  avg # of iterations =  5.2

     total cpu time spent up to now is      549.2 secs

     total energy              =   -3113.95841123 Ry
     estimated scf accuracy    <       0.00039789 Ry

     iteration # 11     ecut=    80.00 Ry     beta= 0.10
     Davidson diagonalization with overlap
     ethr =  4.32E-07,  avg # of iterations =  4.1

     total cpu time spent up to now is      590.5 secs

     total energy              =   -3113.95844968 Ry
     estimated scf accuracy    <       0.00031161 Ry

     iteration # 12     ecut=    80.00 Ry     beta= 0.10
     Davidson diagonalization with overlap
     ethr =  3.39E-07,  avg # of iterations =  5.2

     negative rho (up, down):  5.311E-04 0.000E+00

     total cpu time spent up to now is      631.4 secs

     total energy              =   -3113.95845937 Ry
     estimated scf accuracy    <       0.00028893 Ry

     iteration # 13     ecut=    80.00 Ry     beta= 0.10
     Davidson diagonalization with overlap
     ethr =  3.14E-07,  avg # of iterations =  4.6

     negative rho (up, down):  1.520E-03 0.000E+00

     total cpu time spent up to now is      677.1 secs

     total energy              =   -3113.95845182 Ry
     estimated scf accuracy    <       0.00039530 Ry

     iteration # 14     ecut=    80.00 Ry     beta= 0.10
     Davidson diagonalization with overlap
     ethr =  3.14E-07,  avg # of iterations =  1.5

     negative rho (up, down):  2.770E-03 0.000E+00

     total cpu time spent up to now is      718.1 secs

     total energy              =   -3113.95833140 Ry
     estimated scf accuracy    <       0.00028830 Ry

     iteration # 15     ecut=    80.00 Ry     beta= 0.10
     Davidson diagonalization with overlap
     ethr =  3.13E-07,  avg # of iterations =  6.0

     negative rho (up, down):  3.227E-03 0.000E+00

     total cpu time spent up to now is      769.8 secs

     total energy              =   -3113.95837316 Ry
     estimated scf accuracy    <       0.00046404 Ry

     iteration # 16     ecut=    80.00 Ry     beta= 0.10
     Davidson diagonalization with overlap
     ethr =  3.13E-07,  avg # of iterations =  2.0

     negative rho (up, down):  3.526E-03 0.000E+00

     total cpu time spent up to now is      813.1 secs

     total energy              =   -3113.95829671 Ry
     estimated scf accuracy    <       0.00031203 Ry

     iteration # 17     ecut=    80.00 Ry     beta= 0.10
     Davidson diagonalization with overlap
     ethr =  3.13E-07,  avg # of iterations =  4.3

     negative rho (up, down):  4.305E-03 0.000E+00

     total cpu time spent up to now is      861.9 secs

     total energy              =   -3113.95832415 Ry
     estimated scf accuracy    <       0.00028221 Ry

     iteration # 18     ecut=    80.00 Ry     beta= 0.10
     Davidson diagonalization with overlap
     ethr =  3.07E-07,  avg # of iterations =  1.1

     negative rho (up, down):  3.236E-03 0.000E+00

     total cpu time spent up to now is      899.4 secs

     total energy              =   -3113.95834617 Ry
     estimated scf accuracy    <       0.00023443 Ry

     iteration # 19     ecut=    80.00 Ry     beta= 0.10
     Davidson diagonalization with overlap
     ethr =  2.55E-07,  avg # of iterations =  2.6

     negative rho (up, down):  2.242E-03 0.000E+00

     total cpu time spent up to now is      946.0 secs

     total energy              =   -3113.95832425 Ry
     estimated scf accuracy    <       0.00004448 Ry

     iteration # 20     ecut=    80.00 Ry     beta= 0.10
     Davidson diagonalization with overlap
     ethr =  4.83E-08,  avg # of iterations =  4.4

     negative rho (up, down):  1.808E-03 0.000E+00

     total cpu time spent up to now is      998.0 secs

     total energy              =   -3113.95835488 Ry
     estimated scf accuracy    <       0.00004973 Ry

     iteration # 21     ecut=    80.00 Ry     beta= 0.10
     Davidson diagonalization with overlap
     ethr =  4.83E-08,  avg # of iterations =  2.9

     negative rho (up, down):  1.056E-03 0.000E+00

     total cpu time spent up to now is     1046.3 secs

     total energy              =   -3113.95835651 Ry
     estimated scf accuracy    <       0.00002280 Ry

     iteration # 22     ecut=    80.00 Ry     beta= 0.10
     Davidson diagonalization with overlap
     ethr =  2.48E-08,  avg # of iterations =  2.9

     negative rho (up, down):  9.647E-04 0.000E+00

     total cpu time spent up to now is     1095.8 secs

     total energy              =   -3113.95835836 Ry
     estimated scf accuracy    <       0.00000454 Ry

     iteration # 23     ecut=    80.00 Ry     beta= 0.10
     Davidson diagonalization with overlap
     ethr =  4.94E-09,  avg # of iterations =  2.0

     negative rho (up, down):  3.481E-04 0.000E+00

     total cpu time spent up to now is     1141.3 secs

     total energy              =   -3113.95836138 Ry
     estimated scf accuracy    <       0.00000253 Ry

     iteration # 24     ecut=    80.00 Ry     beta= 0.10
     Davidson diagonalization with overlap
     ethr =  2.75E-09,  avg # of iterations =  4.4

     negative rho (up, down):  2.473E-04 0.000E+00

     total cpu time spent up to now is     1189.9 secs

     total energy              =   -3113.95836182 Ry
     estimated scf accuracy    <       0.00000303 Ry

     iteration # 25     ecut=    80.00 Ry     beta= 0.10
     Davidson diagonalization with overlap
     ethr =  2.75E-09,  avg # of iterations =  2.0

     negative rho (up, down):  2.932E-04 0.000E+00

     total cpu time spent up to now is     1236.2 secs

     total energy              =   -3113.95836293 Ry
     estimated scf accuracy    <       0.00000165 Ry

     iteration # 26     ecut=    80.00 Ry     beta= 0.10
     Davidson diagonalization with overlap
     ethr =  1.80E-09,  avg # of iterations =  2.1

     negative rho (up, down):  3.075E-04 0.000E+00

     total cpu time spent up to now is     1281.7 secs

     total energy              =   -3113.95836328 Ry
     estimated scf accuracy    <       0.00000052 Ry

     iteration # 27     ecut=    80.00 Ry     beta= 0.10
     Davidson diagonalization with overlap
     ethr =  5.63E-10,  avg # of iterations =  2.4

     negative rho (up, down):  2.204E-04 0.000E+00

     total cpu time spent up to now is     1328.6 secs

     total energy              =   -3113.95836534 Ry
     estimated scf accuracy    <       0.00000064 Ry

     iteration # 28     ecut=    80.00 Ry     beta= 0.10
     Davidson diagonalization with overlap
     ethr =  5.63E-10,  avg # of iterations =  2.3

     negative rho (up, down):  1.485E-04 0.000E+00

     total cpu time spent up to now is     1378.7 secs

     End of self-consistent calculation

          k = 0.0000 0.0000 0.0000 ( 38015 PWs)   bands (ev):

   -74.8831 -74.8827 -48.1484 -48.1484 -48.1478 -48.1478 -48.1471 -48.1471
   -48.1467 -48.1467 -48.1175 -48.1175 -48.1172 -48.1172 -48.1162 -48.1162
   -48.1161 -48.1161 -48.1034 -48.1029 -48.1022 -48.1018 -39.0761 -39.0756
   -39.0411 -39.0411 -39.0403 -39.0403 -15.5132 -15.5102 -14.4425 -14.4413
    -6.9749  -6.9732  -3.3542  -3.3542  -3.3495  -3.3495  -3.3312  -3.3306
    -1.3237  -1.3221  -0.6902  -0.6901  -0.6880  -0.6880   0.2055   0.2055
     0.2076   0.2077   3.1314   3.4078   3.4079   3.4096   3.4097

          k = 0.0000 0.0722 0.0000 ( 37975 PWs)   bands (ev):

   -74.8827 -74.8823 -48.1484 -48.1482 -48.1478 -48.1477 -48.1471 -48.1469
   -48.1467 -48.1465 -48.1176 -48.1175 -48.1172 -48.1171 -48.1163 -48.1163
   -48.1161 -48.1160 -48.1033 -48.1029 -48.1021 -48.1017 -39.0743 -39.0738
   -39.0502 -39.0494 -39.0432 -39.0424 -15.4521 -15.4491 -14.4144 -14.4132
    -6.8925  -6.8908  -3.8413  -3.8383  -3.3195  -3.3149  -2.9222  -2.9206
    -1.3976  -1.3967  -0.9766  -0.9747  -0.9193  -0.9169   0.1937   0.1953
     0.4071   0.4088   3.0413   3.0704   3.2776   3.3662   3.3680

          k = 0.0000 0.1443 0.0000 ( 37895 PWs)   bands (ev):

   -74.8816 -74.8812 -48.1483 -48.1479 -48.1477 -48.1471 -48.1470 -48.1467
   -48.1464 -48.1459 -48.1178 -48.1177 -48.1173 -48.1171 -48.1166 -48.1164
   -48.1162 -48.1160 -48.1030 -48.1026 -48.1018 -48.1015 -39.0760 -39.0752
   -39.0691 -39.0685 -39.0493 -39.0485 -15.2730 -15.2702 -14.3325 -14.3312
    -6.6527  -6.6510  -4.3465  -4.3432  -3.2365  -3.2319  -2.6994  -2.6983
    -2.0384  -2.0364  -1.3029  -1.3003  -1.1908  -1.1901   0.1955   0.1970
     0.7111   0.7124   2.4852   2.4998   3.2899   3.2915   3.5545

          k = 0.0000 0.2165 0.0000 ( 37851 PWs)   bands (ev):

   -74.8799 -74.8795 -48.1483 -48.1479 -48.1469 -48.1469 -48.1468 -48.1464
   -48.1456 -48.1452 -48.1182 -48.1178 -48.1175 -48.1172 -48.1170 -48.1166
   -48.1164 -48.1160 -48.1027 -48.1022 -48.1014 -48.1011 -39.1143 -39.1135
   -39.0614 -39.0609 -39.0583 -39.0575 -14.9897 -14.9869 -14.2031 -14.2016
    -6.2852  -6.2834  -4.7991  -4.7957  -3.2975  -3.2952  -3.1735  -3.1690
    -2.4457  -2.4451  -1.5956  -1.5927  -1.3297  -1.3292   0.2342   0.2358
     0.9140   0.9149   2.1772   2.1892   3.2636   3.2650   3.9403

          k = 0.0000 0.2887 0.0000 ( 37919 PWs)   bands (ev):

   -74.8778 -74.8774 -48.1483 -48.1479 -48.1470 -48.1467 -48.1460 -48.1455
   -48.1447 -48.1443 -48.1186 -48.1180 -48.1178 -48.1174 -48.1172 -48.1168
   -48.1166 -48.1160 -48.1022 -48.1018 -48.1010 -48.1007 -39.1592 -39.1584
   -39.0689 -39.0681 -39.0523 -39.0517 -14.6288 -14.6262 -14.0349 -14.0332
    -5.8943  -5.8924  -5.1157  -5.1125  -4.3555  -4.3529  -3.2190  -3.2148
    -2.6173  -2.6171  -1.6934  -1.6904  -1.6343  -1.6337   0.3925   0.3940
     1.0189   1.0196   2.3176   2.3297   3.3088   3.3103   4.4234

          k = 0.0000 0.3608 0.0000 ( 37933 PWs)   bands (ev):

   -74.8758 -74.8754 -48.1484 -48.1478 -48.1471 -48.1466 -48.1451 -48.1447
   -48.1438 -48.1435 -48.1191 -48.1182 -48.1180 -48.1179 -48.1172 -48.1169
   -48.1168 -48.1161 -48.1018 -48.1013 -48.1006 -48.1002 -39.2038 -39.2029
   -39.0795 -39.0787 -39.0431 -39.0426 -14.2442 -14.2416 -13.8299 -13.8280
    -5.9059  -5.9032  -5.3321  -5.3296  -4.9145  -4.9121  -3.3681  -3.3641
    -2.9642  -2.9641  -1.9388  -1.9382  -1.6330  -1.6300   0.7323   0.7335
     1.1122   1.1131   2.7622   2.7739   3.3826   3.3843   4.9343

          k = 0.0000 0.4330 0.0000 ( 37998 PWs)   bands (ev):

   -74.8741 -74.8737 -48.1486 -48.1477 -48.1473 -48.1465 -48.1444 -48.1439
   -48.1430 -48.1428 -48.1195 -48.1183 -48.1183 -48.1182 -48.1173 -48.1171
   -48.1170 -48.1161 -48.1014 -48.1010 -48.1002 -48.0999 -39.2413 -39.2404
   -39.0885 -39.0877 -39.0353 -39.0348 -13.9397 -13.9371 -13.5670 -13.5649
    -6.5204  -6.5175  -5.6014  -5.5990  -4.6920  -4.6902  -3.5327  -3.5288
    -3.2574  -3.2569  -2.1260  -2.1256  -1.5376  -1.5349   1.1979   1.1986
     1.2512   1.2525   3.2682   3.2764   3.4444   3.4464   4.5907

          k = 0.0000 0.5052 0.0000 ( 38048 PWs)   bands (ev):

   -74.8730 -74.8726 -48.1487 -48.1477 -48.1474 -48.1465 -48.1439 -48.1435
   -48.1426 -48.1423 -48.1198 -48.1185 -48.1184 -48.1183 -48.1173 -48.1172
   -48.1171 -48.1162 -48.1012 -48.1007 -48.1000 -48.0996 -39.2662 -39.2653
   -39.0945 -39.0936 -39.0302 -39.0297 -13.7782 -13.7754 -13.2986 -13.2967
    -7.0844  -7.0814  -5.6190  -5.6171  -4.7677  -4.7661  -3.6495  -3.6456
    -3.1904  -3.1894  -2.2441  -2.2438  -1.4763  -1.4738   1.4006   1.4023
     1.6693   1.6697   3.4599   3.4620   3.4807   3.4829   4.5539

          k = 0.0000-0.5774 0.0000 ( 38024 PWs)   bands (ev):

   -74.8726 -74.8722 -48.1487 -48.1476 -48.1474 -48.1464 -48.1437 -48.1433
   -48.1424 -48.1421 -48.1198 -48.1186 -48.1184 -48.1184 -48.1173 -48.1172
   -48.1172 -48.1162 -48.1011 -48.1006 -48.0999 -48.0995 -39.2749 -39.2740
   -39.0966 -39.0957 -39.0283 -39.0278 -13.7284 -13.7256 -13.1842 -13.1823
    -7.2972  -7.2942  -5.5837  -5.5822  -4.8899  -4.8881  -3.6908  -3.6870
    -3.0746  -3.0735  -2.2971  -2.2968  -1.4573  -1.4549   1.4673   1.4691
     1.8922   1.8925   3.4803   3.4810   3.4923   3.4945   4.2152

          k = 0.0625 0.1083 0.0000 ( 37895 PWs)   bands (ev):

   -74.8819 -74.8815 -48.1483 -48.1479 -48.1478 -48.1473 -48.1470 -48.1467
   -48.1465 -48.1461 -48.1177 -48.1176 -48.1173 -48.1172 -48.1165 -48.1164
   -48.1161 -48.1160 -48.1031 -48.1027 -48.1019 -48.1016 -39.0708 -39.0703
   -39.0673 -39.0665 -39.0476 -39.0468 -15.3319 -15.3291 -14.3594 -14.3582
    -6.7310  -6.7293  -4.2118  -4.2086  -3.2684  -3.2637  -2.7212  -2.7201
    -1.7787  -1.7771  -1.3117  -1.3092  -1.1010  -1.1001   0.2640   0.2655
     0.5595   0.5609   2.7015   2.7192   3.2231   3.2290   3.4783

          k = 0.0625 0.1804 0.0000 ( 37885 PWs)   bands (ev):

   -74.8805 -74.8801 -48.1482 -48.1479 -48.1472 -48.1469 -48.1468 -48.1467
   -48.1459 -48.1455 -48.1181 -48.1178 -48.1174 -48.1172 -48.1168 -48.1165
   -48.1162 -48.1161 -48.1028 -48.1024 -48.1016 -48.1012 -39.0987 -39.0979
   -39.0645 -39.0640 -39.0557 -39.0549 -15.1003 -15.0975 -14.2539 -14.2525
    -6.4232  -6.4214  -4.6439  -4.6405  -3.2598  -3.2555  -2.8026  -2.8010
    -2.4669  -2.4653  -1.6545  -1.6521  -1.1349  -1.1342   0.3253   0.3266
     0.6664   0.6673   2.4206   2.4343   3.0789   3.0815   3.7989

          k = 0.0625 0.2526 0.0000 ( 37916 PWs)   bands (ev):

   -74.8787 -74.8783 -48.1482 -48.1479 -48.1469 -48.1467 -48.1464 -48.1459
   -48.1451 -48.1447 -48.1185 -48.1179 -48.1176 -48.1173 -48.1172 -48.1167
   -48.1165 -48.1161 -48.1024 -48.1020 -48.1012 -48.1009 -39.1394 -39.1385
   -39.0668 -39.0660 -39.0558 -39.0553 -14.7763 -14.7736 -14.1061 -14.1044
    -6.0175  -6.0157  -5.0174  -5.0140  -3.9005  -3.8977  -3.1983  -3.1947
    -2.5972  -2.5961  -1.9151  -1.9131  -1.2052  -1.2044   0.2822   0.2833
     0.8745   0.8755   2.3551   2.3658   3.0884   3.0929   4.2296

          k = 0.0625 0.3248 0.0000 ( 37964 PWs)   bands (ev):

   -74.8766 -74.8762 -48.1483 -48.1478 -48.1470 -48.1466 -48.1456 -48.1451
   -48.1442 -48.1439 -48.1189 -48.1181 -48.1179 -48.1177 -48.1173 -48.1168
   -48.1167 -48.1161 -48.1020 -48.1015 -48.1008 -48.1004 -39.1830 -39.1822
   -39.0783 -39.0775 -39.0467 -39.0462 -14.3968 -14.3942 -13.9238 -13.9220
    -5.7463  -5.7439  -5.1871  -5.1845  -4.8237  -4.8209  -3.4313  -3.4280
    -2.7110  -2.7102  -2.2445  -2.2426  -1.2631  -1.2617   0.3960   0.3969
     1.1301   1.1309   2.5189   2.5269   3.2268   3.2336   4.7539

          k = 0.0625 0.3969 0.0000 ( 37981 PWs)   bands (ev):

   -74.8748 -74.8744 -48.1484 -48.1477 -48.1471 -48.1465 -48.1448 -48.1443
   -48.1434 -48.1431 -48.1193 -48.1183 -48.1181 -48.1181 -48.1173 -48.1171
   -48.1169 -48.1162 -48.1016 -48.1011 -48.1004 -48.1000 -39.2231 -39.2222
   -39.0891 -39.0882 -39.0383 -39.0378 -14.0392 -14.0367 -13.6976 -13.6956
    -6.1334  -6.1306  -5.5102  -5.5077  -4.7669  -4.7649  -3.6802  -3.6772
    -2.9780  -2.9770  -2.4730  -2.4713  -1.2577  -1.2561   0.6887   0.6892
     1.3996   1.4003   2.8044   2.8085   3.4502   3.4584   4.9639

          k = 0.0625 0.4691 0.0000 ( 38057 PWs)   bands (ev):

   -74.8734 -74.8730 -48.1485 -48.1476 -48.1472 -48.1464 -48.1442 -48.1437
   -48.1428 -48.1426 -48.1196 -48.1185 -48.1184 -48.1182 -48.1174 -48.1173
   -48.1170 -48.1162 -48.1013 -48.1008 -48.1001 -48.0997 -39.2535 -39.2526
   -39.0973 -39.0964 -39.0318 -39.0313 -13.8116 -13.8089 -13.4177 -13.4157
    -6.7859  -6.7830  -5.6140  -5.6118  -4.6526  -4.6510  -3.7943  -3.7912
    -3.1459  -3.1446  -2.5697  -2.5683  -1.2629  -1.2614   1.0645   1.0652
     1.6717   1.6724   3.0268   3.0287   3.6227   3.6266   4.6936

          k = 0.0625 0.5413 0.0000 ( 38034 PWs)   bands (ev):

   -74.8726 -74.8722 -48.1485 -48.1475 -48.1473 -48.1463 -48.1438 -48.1434
   -48.1425 -48.1423 -48.1198 -48.1186 -48.1186 -48.1182 -48.1174 -48.1174
   -48.1170 -48.1162 -48.1011 -48.1006 -48.0999 -48.0995 -39.2699 -39.2690
   -39.1017 -39.1009 -39.0283 -39.0278 -13.7120 -13.7092 -13.2112 -13.2092
    -7.1851  -7.1821  -5.5884  -5.5867  -4.8107  -4.8089  -3.8040  -3.8006
    -3.0689  -3.0676  -2.6200  -2.6189  -1.2899  -1.2885   1.3693   1.3708
     1.8441   1.8444   3.1805   3.1822   3.5379   3.5390   4.5438

          k = 0.1250 0.2165 0.0000 ( 37933 PWs)   bands (ev):

   -74.8789 -74.8785 -48.1482 -48.1478 -48.1468 -48.1467 -48.1466 -48.1461
   -48.1453 -48.1449 -48.1184 -48.1179 -48.1175 -48.1173 -48.1172 -48.1166
   -48.1163 -48.1162 -48.1025 -48.1020 -48.1013 -48.1009 -39.1311 -39.1302
   -39.0675 -39.0666 -39.0569 -39.0564 -14.8268 -14.8241 -14.1305 -14.1289
    -6.0620  -6.0603  -4.9693  -4.9659  -3.7347  -3.7314  -2.9756  -2.9743
    -2.8972  -2.8938  -1.9109  -1.9093  -1.0341  -1.0335   0.2809   0.2814
     0.7073   0.7090   2.6837   2.6941   2.6942   2.7016   4.1672

          k = 0.1250 0.2887 0.0000 ( 37936 PWs)   bands (ev):

   -74.8771 -74.8767 -48.1481 -48.1476 -48.1468 -48.1465 -48.1459 -48.1454
   -48.1446 -48.1442 -48.1189 -48.1180 -48.1177 -48.1176 -48.1174 -48.1167
   -48.1165 -48.1163 -48.1021 -48.1016 -48.1009 -48.1005 -39.1683 -39.1675
   -39.0812 -39.0804 -39.0486 -39.0481 -14.4778 -14.4751 -13.9723 -13.9705
    -5.6470  -5.6451  -5.2270  -5.2237  -4.5427  -4.5398  -3.4373  -3.4351
    -2.9736  -2.9708  -2.1956  -2.1946  -0.9222  -0.9214   0.0999   0.1004
     1.0898   1.0912   2.3993   2.4011   3.0485   3.0645   4.6432

          k = 0.1250 0.3608 0.0000 ( 38000 PWs)   bands (ev):

   -74.8752 -74.8748 -48.1481 -48.1475 -48.1468 -48.1463 -48.1452 -48.1447
   -48.1439 -48.1436 -48.1192 -48.1181 -48.1180 -48.1180 -48.1175 -48.1169
   -48.1168 -48.1164 -48.1017 -48.1012 -48.1005 -48.1001 -39.2051 -39.2042
   -39.0953 -39.0945 -39.0403 -39.0398 -14.1028 -14.1003 -13.7846 -13.7826
    -5.7189  -5.7161  -5.3682  -5.3655  -4.8994  -4.8972  -3.8252  -3.8227
    -3.0773  -3.0749  -2.6313  -2.6303  -0.8445  -0.8436   0.2105   0.2110
     1.4760   1.4768   2.3193   2.3208   3.4192   3.4330   5.1976

          k = 0.1250 0.4330 0.0000 ( 38048 PWs)   bands (ev):

   -74.8736 -74.8733 -48.1481 -48.1473 -48.1469 -48.1461 -48.1446 -48.1442
   -48.1432 -48.1430 -48.1195 -48.1184 -48.1183 -48.1180 -48.1176 -48.1172
   -48.1168 -48.1164 -48.1013 -48.1009 -48.1001 -48.0998 -39.2360 -39.2351
   -39.1074 -39.1066 -39.0331 -39.0326 -13.8100 -13.8074 -13.5404 -13.5383
    -6.3517  -6.3489  -5.5605  -5.5579  -4.5557  -4.5539  -4.0754  -4.0728
    -3.2070  -3.2048  -3.0015  -3.0003  -0.8653  -0.8646   0.5632   0.5636
     1.7614   1.7624   2.4233   2.4246   3.7204   3.7280   5.1423

          k = 0.1250 0.5052 0.0000 ( 38027 PWs)   bands (ev):

   -74.8726 -74.8722 -48.1482 -48.1472 -48.1469 -48.1460 -48.1441 -48.1438
   -48.1428 -48.1426 -48.1196 -48.1187 -48.1184 -48.1181 -48.1176 -48.1175
   -48.1169 -48.1164 -48.1011 -48.1007 -48.0999 -48.0996 -39.2564 -39.2556
   -39.1155 -39.1147 -39.0284 -39.0279 -13.6640 -13.6613 -13.2841 -13.2820
    -6.8723  -6.8694  -5.5838  -5.5816  -4.6174  -4.6156  -4.0414  -4.0386
    -3.2961  -3.2942  -3.1054  -3.1040  -0.9534  -0.9529   1.0175   1.0182
     1.8426   1.8436   2.6199   2.6212   3.7166   3.7188   5.0437

          k = 0.1250 0.5774 0.0000 ( 37968 PWs)   bands (ev):

   -74.8722 -74.8718 -48.1482 -48.1471 -48.1469 -48.1459 -48.1440 -48.1436
   -48.1426 -48.1425 -48.1197 -48.1187 -48.1185 -48.1181 -48.1176 -48.1175
   -48.1169 -48.1165 -48.1010 -48.1006 -48.0998 -48.0995 -39.2636 -39.2627
   -39.1183 -39.1175 -39.0267 -39.0262 -13.6192 -13.6165 -13.1766 -13.1746
    -7.0654  -7.0624  -5.5676  -5.5657  -4.7231  -4.7212  -4.0199  -4.0170
    -3.3159  -3.3141  -3.0738  -3.0725  -1.0052  -1.0047   1.3108   1.3119
     1.7517   1.7523   2.7563   2.7577   3.5863   3.5875   4.9879

          k = 0.1875 0.3248 0.0000 ( 37987 PWs)   bands (ev):

   -74.8754 -74.8750 -48.1480 -48.1473 -48.1467 -48.1461 -48.1454 -48.1449
   -48.1441 -48.1438 -48.1192 -48.1180 -48.1180 -48.1179 -48.1177 -48.1167
   -48.1167 -48.1166 -48.1017 -48.1013 -48.1005 -48.1002 -39.1970 -39.1961
   -39.0994 -39.0985 -39.0409 -39.0404 -14.1248 -14.1223 -13.8149 -13.8129
    -5.4152  -5.4122  -5.3938  -5.3914  -4.9766  -4.9740  -3.8267  -3.8249
    -3.3840  -3.3808  -2.5099  -2.5091  -0.5913  -0.5905  -0.0584  -0.0580
     1.4825   1.4835   2.1257   2.1265   3.4107   3.4263   5.1579

          k = 0.1875 0.3969 0.0000 ( 38014 PWs)   bands (ev):

   -74.8738 -74.8734 -48.1478 -48.1470 -48.1465 -48.1458 -48.1449 -48.1445
   -48.1436 -48.1433 -48.1194 -48.1183 -48.1182 -48.1180 -48.1178 -48.1170
   -48.1168 -48.1167 -48.1014 -48.1010 -48.1001 -48.0999 -39.2217 -39.2208
   -39.1178 -39.1169 -39.0338 -39.0333 -13.7820 -13.7796 -13.6350 -13.6328
    -5.9341  -5.9314  -5.5137  -5.5107  -4.6026  -4.6006  -4.1798  -4.1779
    -3.7281  -3.7254  -2.9134  -2.9126  -0.4267  -0.4262   0.0861   0.0863
     1.7970   1.7978   2.0411   2.0418   3.7651   3.7752   5.6347

          k = 0.1875 0.4691 0.0000 ( 38010 PWs)   bands (ev):

   -74.8726 -74.8722 -48.1477 -48.1467 -48.1464 -48.1455 -48.1446 -48.1442
   -48.1432 -48.1430 -48.1195 -48.1186 -48.1183 -48.1180 -48.1178 -48.1174
   -48.1168 -48.1167 -48.1011 -48.1007 -48.0999 -48.0996 -39.2396 -39.2387
   -39.1327 -39.1318 -39.0284 -39.0279 -13.5884 -13.5858 -13.3838 -13.3816
    -6.4489  -6.4461  -5.5644  -5.5617  -4.4324  -4.4303  -4.2339  -4.2319
    -3.9797  -3.9774  -3.2112  -3.2102  -0.5219  -0.5217   0.5266   0.5269
     1.8549   1.8559   2.2082   2.2090   3.9049   3.9085   5.3129

          k = 0.1875 0.5413 0.0000 ( 38010 PWs)   bands (ev):

   -74.8719 -74.8715 -48.1476 -48.1466 -48.1463 -48.1454 -48.1444 -48.1440
   -48.1430 -48.1429 -48.1195 -48.1188 -48.1183 -48.1181 -48.1178 -48.1176
   -48.1168 -48.1167 -48.1010 -48.1006 -48.0997 -48.0995 -39.2490 -39.2481
   -39.1410 -39.1402 -39.0254 -39.0250 -13.5099 -13.5073 -13.2002 -13.1980
    -6.7485  -6.7456  -5.5720  -5.5696  -4.5638  -4.5615  -4.1703  -4.1682
    -4.0578  -4.0560  -3.2642  -3.2629  -0.6306  -0.6305   0.9962   0.9966
     1.6236   1.6248   2.4852   2.4860   3.7024   3.7041   5.2901

          k = 0.2500 0.4330 0.0000 ( 38031 PWs)   bands (ev):

   -74.8726 -74.8722 -48.1474 -48.1465 -48.1461 -48.1453 -48.1448 -48.1444
   -48.1435 -48.1432 -48.1195 -48.1184 -48.1183 -48.1182 -48.1179 -48.1172
   -48.1170 -48.1167 -48.1011 -48.1007 -48.0999 -48.0996 -39.2307 -39.2299
   -39.1417 -39.1408 -39.0284 -39.0279 -13.5021 -13.5000 -13.4798 -13.4772
    -6.1950  -6.1922  -5.5614  -5.5584  -4.4142  -4.4121  -4.3796  -4.3776
    -4.1708  -4.1686  -3.2823  -3.2814  -0.0363  -0.0356   0.0119   0.0126
     1.8433   1.8438   2.0826   2.0831   3.9865   3.9909   5.4292

          k = 0.2500 0.5052 0.0000 ( 38019 PWs)   bands (ev):

   -74.8718 -74.8714 -48.1471 -48.1461 -48.1458 -48.1449 -48.1448 -48.1444
   -48.1435 -48.1433 -48.1194 -48.1187 -48.1183 -48.1182 -48.1179 -48.1175
   -48.1171 -48.1167 -48.1009 -48.1006 -48.0997 -48.0995 -39.2330 -39.2321
   -39.1615 -39.1606 -39.0248 -39.0243 -13.4030 -13.4005 -13.2654 -13.2630
    -6.3663  -6.3635  -5.5912  -5.5884  -4.8079  -4.8051  -4.3759  -4.3743
    -4.0461  -4.0444  -3.5453  -3.5442  -0.1484  -0.1482   0.4469   0.4472
     1.5632   1.5643   2.4193   2.4199   3.8668   3.8688   5.1179

          k = 0.2500 0.5774 0.0000 ( 38023 PWs)   bands (ev):

   -74.8715 -74.8711 -48.1469 -48.1459 -48.1457 -48.1448 -48.1447 -48.1445
   -48.1435 -48.1433 -48.1193 -48.1189 -48.1184 -48.1181 -48.1179 -48.1177
   -48.1172 -48.1167 -48.1009 -48.1005 -48.0996 -48.0994 -39.2325 -39.2316
   -39.1697 -39.1688 -39.0235 -39.0230 -13.3677 -13.3651 -13.1855 -13.1831
    -6.4243  -6.4215  -5.5984  -5.5956  -4.9760  -4.9732  -4.2110  -4.2095
    -4.2078  -4.2063  -3.5627  -3.5614  -0.2095  -0.2093   0.8044   0.8047
     1.2265   1.2283   2.7043   2.7049   3.6198   3.6213   5.0425

          k = 0.3125 0.5413 0.0000 ( 38095 PWs)   bands (ev):

   -74.8714 -74.8710 -48.1466 -48.1455 -48.1453 -48.1452 -48.1448 -48.1443
   -48.1439 -48.1436 -48.1192 -48.1189 -48.1186 -48.1180 -48.1178 -48.1176
   -48.1176 -48.1167 -48.1008 -48.1005 -48.0996 -48.0995 -39.2176 -39.2168
   -39.1888 -39.1880 -39.0228 -39.0223 -13.2804 -13.2780 -13.2184 -13.2159
    -6.1139  -6.1113  -5.6280  -5.6251  -5.4141  -5.4113  -4.2209  -4.2195
    -3.9254  -3.9239  -3.8943  -3.8932   0.2308   0.2314   0.4107   0.4109
     1.0784   1.0802   2.9090   2.9098   3.5407   3.5420   4.8454

     the Fermi energy is    -0.0071 ev

!    total energy              =   -3113.95836666 Ry
     total all-electron energy =    -83998.682931 Ry
     estimated scf accuracy    <       0.00000008 Ry
     smearing contrib. (-TS)   =       0.00046642 Ry
     internal energy E=F+TS    =   -3113.95883308 Ry

     The total energy is F=E-TS. E is the sum of the following terms:
     one-electron contribution =  -17621.11836129 Ry
     hartree contribution      =    8797.72461032 Ry
     xc contribution           =    -193.57606018 Ry
     ewald contribution        =    7664.32504201 Ry
     one-center paw contrib.   =   -1761.31406394 Ry

     convergence has been achieved in  28 iterations

     Writing all to output data dir ./tmp/cleave_032/wse2_cleave_032.save/ :
     XML data file, charge density, pseudopotentials, collected wavefunctions

     init_run     :     28.55s CPU     28.94s WALL (       1 calls)
     electrons    :   1320.06s CPU   1349.62s WALL (       1 calls)

     Called by init_run:
     wfcinit      :     15.68s CPU     15.78s WALL (       1 calls)
     potinit      :     11.85s CPU     11.95s WALL (       1 calls)
     hinit0       :      0.10s CPU      0.11s WALL (       1 calls)

     Called by electrons:
     c_bands      :   1116.73s CPU   1135.10s WALL (      29 calls)
     sum_band     :    145.39s CPU    151.47s WALL (      29 calls)
     v_of_rho     :     34.12s CPU     35.48s WALL (      29 calls)
     newd         :     20.47s CPU     24.20s WALL (      29 calls)
     PAW_pot      :      2.82s CPU      2.87s WALL (      29 calls)
     mix_rho      :     12.58s CPU     12.80s WALL (      29 calls)
     vdW_kernel   :     10.89s CPU     10.90s WALL (       1 calls)

     Called by c_bands:
     init_us_2    :      4.83s CPU      4.85s WALL (    1770 calls)
     cegterg      :   1090.33s CPU   1107.97s WALL (     870 calls)

     Called by *egterg:
     cdiaghg      :     11.72s CPU     11.76s WALL (    3845 calls)
     h_psi        :    440.10s CPU    445.27s WALL (    3905 calls)
     s_psi        :     93.89s CPU     94.02s WALL (    3905 calls)
     g_psi        :      0.93s CPU      0.93s WALL (    3005 calls)

     Called by h_psi:
     h_psi:calbec :    166.24s CPU    169.14s WALL (    3905 calls)
     vloc_psi     :    165.38s CPU    167.46s WALL (    3905 calls)
                                        0.00s GPU  (    3905 calls)
     add_vuspsi   :    107.16s CPU    107.33s WALL (    3905 calls)

     General routines
     calbec       :    239.10s CPU    243.22s WALL (    4775 calls)
     fft          :     16.36s CPU     16.70s WALL (    1826 calls)
     ffts         :      5.13s CPU      5.23s WALL (    3379 calls)
     fftw         :    186.70s CPU    189.17s WALL (  261806 calls)
     interpolate  :      0.27s CPU      0.28s WALL (      29 calls)

     Parallel routines

     PWSCF        :  22m29.32s CPU  22m59.54s WALL


   This run was terminated on:  21:30:46  18Jun2026            

=------------------------------------------------------------------------------=
   JOB DONE.
=------------------------------------------------------------------------------=
Note: The following floating-point exceptions are signalling: IEEE_UNDERFLOW_FLAG IEEE_DENORMAL
Note: The following floating-point exceptions are signalling: IEEE_UNDERFLOW_FLAG IEEE_DENORMAL
Note: The following floating-point exceptions are signalling: IEEE_UNDERFLOW_FLAG IEEE_DENORMAL
Note: The following floating-point exceptions are signalling: IEEE_UNDERFLOW_FLAG IEEE_DENORMAL
Note: The following floating-point exceptions are signalling: IEEE_UNDERFLOW_FLAG IEEE_DENORMAL
Note: The following floating-point exceptions are signalling: IEEE_UNDERFLOW_FLAG IEEE_DENORMAL
Note: The following floating-point exceptions are signalling: IEEE_UNDERFLOW_FLAG IEEE_DENORMAL
Note: The following floating-point exceptions are signalling: IEEE_UNDERFLOW_FLAG IEEE_DENORMAL
Note: The following floating-point exceptions are signalling: IEEE_UNDERFLOW_FLAG IEEE_DENORMAL
Note: The following floating-point exceptions are signalling: IEEE_UNDERFLOW_FLAG IEEE_DENORMAL
Note: The following floating-point exceptions are signalling: IEEE_UNDERFLOW_FLAG IEEE_DENORMAL
Note: The following floating-point exceptions are signalling: IEEE_UNDERFLOW_FLAG IEEE_DENORMAL
