
     Program PWSCF v.7.5 starts on 18Jun2026 at 15:11:27 

     This program is part of the open-source Quantum ESPRESSO suite
     for quantum simulation of materials; please cite
         "P. Giannozzi et al., J. Phys.:Condens. Matter 21 395502 (2009);
         "P. Giannozzi et al., J. Phys.:Condens. Matter 29 465901 (2017);
         "P. Giannozzi et al., J. Chem. Phys. 152 154105 (2020);
          URL http://www.quantum-espresso.org", 
     in publications or presentations arising from this work. More details at
     http://www.quantum-espresso.org/quote

     Parallel version (MPI), running on    12 processors

     MPI processes distributed on     1 nodes
     25731 MiB available memory on the printing compute node when the environment starts

     Waiting for input...
     Reading input from standard input

     Current dimensions of program PWSCF are:
     Max number of different atomic species (ntypx) = 10
     Max number of k-points (npk) =  40000
     Max angular momentum in pseudopotentials (lmaxx) =  4
     file W.pbe-spn-kjpaw_psl.1.0.0.UPF: wavefunction(s)  6S 5P 5D renormalized
     file Se.pbe-dn-kjpaw_psl.1.0.0.UPF: wavefunction(s)  4S 4P 3D renormalized

     IMPORTANT: XC functional enforced from input :
     Exchange-correlation= VDW-DF2-B86R
                           (   1   4  26   0   2   0   0)
     Any further DFT definition will be discarded
     Please, verify this is what you really want


     R & G space division:  proc/nbgrp/npool/nimage =      12
     Subspace diagonalization in iterative solution of the eigenvalue problem:
     a serial algorithm will be used


     Parallelization info
     --------------------
     sticks:   dense  smooth     PW     G-vecs:    dense   smooth      PW
     Min         139      70     20                71489    25322    3895
     Max         140      71     22                71558    25395    3945
     Sum        1675     847    253               858263   304337   46813

     Using Slab Decomposition



     bravais-lattice index     =            4
     lattice parameter (alat)  =       6.1983  a.u.
     unit-cell volume          =    3143.7277 (a.u.)^3
     number of atoms/cell      =            6
     number of atomic types    =            2
     number of electrons       =        92.00
     number of Kohn-Sham states=           55
     kinetic-energy cutoff     =      80.0000  Ry
     charge density cutoff     =     640.0000  Ry
     scf convergence threshold =      1.0E-07
     mixing beta               =       0.1000
     number of iterations used =           12  local-TF  mixing
     Exchange-correlation= VDW-DF2-B86R
                           (   1   4  26   0   2   0   0)

     celldm(1)=   6.198302  celldm(2)=   0.000000  celldm(3)=  15.243902
     celldm(4)=   0.000000  celldm(5)=   0.000000  celldm(6)=   0.000000

     crystal axes: (cart. coord. in units of alat)
               a(1) = (   1.000000   0.000000   0.000000 )  
               a(2) = (  -0.500000   0.866025   0.000000 )  
               a(3) = (   0.000000   0.000000  15.243902 )  

     reciprocal axes: (cart. coord. in units 2 pi/alat)
               b(1) = (  1.000000  0.577350 -0.000000 )  
               b(2) = (  0.000000  1.154701  0.000000 )  
               b(3) = (  0.000000 -0.000000  0.065600 )  


     PseudoPot. # 1 for W  read from file:
     ./pseudo/W.pbe-spn-kjpaw_psl.1.0.0.UPF
     MD5 check sum: 03c3df5b60893f488392c7401945500a
     Pseudo is Projector augmented-wave + core cor, Zval = 14.0
     Generated using &quot;atomic&quot; code by A. Dal Corso  v.6.2.2
     Shape of augmentation charge: PSQ
     Using radial grid of 1273 points,  6 beta functions with: 
                l(1) =   0
                l(2) =   0
                l(3) =   1
                l(4) =   1
                l(5) =   2
                l(6) =   2
     Q(r) pseudized with 0 coefficients 


     PseudoPot. # 2 for Se read from file:
     ./pseudo/Se.pbe-dn-kjpaw_psl.1.0.0.UPF
     MD5 check sum: ac240dd2bae32a30e0bf3a38df9c8785
     Pseudo is Projector augmented-wave + core cor, Zval = 16.0
     Generated using &quot;atomic&quot; code by A. Dal Corso  v.6.3
     Shape of augmentation charge: PSQ
     Using radial grid of 1211 points,  6 beta functions with: 
                l(1) =   0
                l(2) =   0
                l(3) =   1
                l(4) =   1
                l(5) =   2
                l(6) =   2
     Q(r) pseudized with 0 coefficients 


     atomic species   valence    mass     pseudopotential
     W                14.00   183.84000     W ( 1.00)
     Se               16.00    78.96000     Se( 1.00)

      6 Sym. Ops. (no inversion) found



   Cartesian axes

     site n.     atom                  positions (alat units)
         1        Se     tau(   1) = (  -0.0000005   0.5773506   6.1149390  )
         2        W      tau(   2) = (   0.0000000   0.0000000   6.6383232  )
         3        Se     tau(   3) = (   0.5000005   0.2886748   7.1618445  )
         4        Se     tau(   4) = (  -0.0000005   0.5773506   8.8743140  )
         5        W      tau(   5) = (   0.5000005   0.2886748   9.3975610  )
         6        Se     tau(   6) = (   0.0000000   0.0000000   9.9216463  )

     number of k points=    30  Methfessel-Paxton smearing, width (Ry)=  0.0200
                       cart. coord. in units 2pi/alat
        k(    1) = (   0.0000000   0.0000000   0.0000000), wk =   0.0078125
        k(    2) = (   0.0000000   0.0721688   0.0000000), wk =   0.0468750
        k(    3) = (   0.0000000   0.1443376   0.0000000), wk =   0.0468750
        k(    4) = (   0.0000000   0.2165064   0.0000000), wk =   0.0468750
        k(    5) = (   0.0000000   0.2886751   0.0000000), wk =   0.0468750
        k(    6) = (   0.0000000   0.3608439   0.0000000), wk =   0.0468750
        k(    7) = (   0.0000000   0.4330127   0.0000000), wk =   0.0468750
        k(    8) = (   0.0000000   0.5051815   0.0000000), wk =   0.0468750
        k(    9) = (   0.0000000  -0.5773503   0.0000000), wk =   0.0234375
        k(   10) = (   0.0625000   0.1082532   0.0000000), wk =   0.0468750
        k(   11) = (   0.0625000   0.1804220   0.0000000), wk =   0.0937500
        k(   12) = (   0.0625000   0.2525907   0.0000000), wk =   0.0937500
        k(   13) = (   0.0625000   0.3247595   0.0000000), wk =   0.0937500
        k(   14) = (   0.0625000   0.3969283   0.0000000), wk =   0.0937500
        k(   15) = (   0.0625000   0.4690971   0.0000000), wk =   0.0937500
        k(   16) = (   0.0625000   0.5412659   0.0000000), wk =   0.0937500
        k(   17) = (   0.1250000   0.2165064   0.0000000), wk =   0.0468750
        k(   18) = (   0.1250000   0.2886751   0.0000000), wk =   0.0937500
        k(   19) = (   0.1250000   0.3608439   0.0000000), wk =   0.0937500
        k(   20) = (   0.1250000   0.4330127   0.0000000), wk =   0.0937500
        k(   21) = (   0.1250000   0.5051815   0.0000000), wk =   0.0937500
        k(   22) = (   0.1250000   0.5773503   0.0000000), wk =   0.0468750
        k(   23) = (   0.1875000   0.3247595   0.0000000), wk =   0.0468750
        k(   24) = (   0.1875000   0.3969283   0.0000000), wk =   0.0937500
        k(   25) = (   0.1875000   0.4690971   0.0000000), wk =   0.0937500
        k(   26) = (   0.1875000   0.5412659   0.0000000), wk =   0.0937500
        k(   27) = (   0.2500000   0.4330127   0.0000000), wk =   0.0468750
        k(   28) = (   0.2500000   0.5051815   0.0000000), wk =   0.0937500
        k(   29) = (   0.2500000   0.5773503   0.0000000), wk =   0.0468750
        k(   30) = (   0.3125000   0.5412659   0.0000000), wk =   0.0468750

     Dense  grid:   858263 G-vectors     FFT dimensions: (  50,  50, 768)

     Smooth grid:   304337 G-vectors     FFT dimensions: (  36,  36, 540)

     Estimated max dynamical RAM per process >     350.14 MB

     Estimated total dynamical RAM >       4.10 GB

     Initial potential from superposition of free atoms

     starting charge      91.9986, renormalised to      92.0000

     negative rho (up, down):  1.705E-04 0.000E+00


     %%%%%%%%%%%%%%%%%%%%%%%%%%%%%%%%%%%%%%%%%%%%%%%%%%%%%%%%%%%%%%%%%%%%%%%%
     %                                                                      %
     % You are using vdW-DF, which was implemented by the Thonhauser group. %
     % Please cite the following two papers that made this development      %
     % possible and the two reviews that describe the various versions:     %
     %                                                                      %
     %   T. Thonhauser et al., PRL 115, 136402 (2015).                      %
     %   T. Thonhauser et al., PRB 76, 125112 (2007).                       %
     %   K. Berland et al., Rep. Prog. Phys. 78, 066501 (2015).             %
     %   D.C. Langreth et al., J. Phys.: Condens. Matter 21, 084203 (2009). %
     %                                                                      %
     % If you are calculating stress with vdW-DF, please also cite:         %
     %                                                                      %
     %   R. Sabatini et al., J. Phys.: Condens. Matter 24, 424209 (2012).   %
     %                                                                      %
     %%%%%%%%%%%%%%%%%%%%%%%%%%%%%%%%%%%%%%%%%%%%%%%%%%%%%%%%%%%%%%%%%%%%%%%%

     %%%%%%%%%%%%%%%%%%%%%%%%%%%%%%%%%%%%%%%%%%%%%%%%%%%%%%%%%%%%%%%%%%%%%%%%
     %                                                                      %
     %  vdW-DF NEWS:                                                        %
     %                                                                      %
     %  * vdW-DF3 is now available. DOI: 10.1021/acs.jctc.0c00471           %
     %    use with input_dft = 'vdW-DF3-opt1' or 'vdW-DF3-opt2'             %
     %                                                                      %
     %  * Unscreened and range-separated hybrid vdW-DF-cx functionals       %
     %    DOI: 10.1063/1.4986522 and 10.1088/1361-648X/ac2ad2               %
     %    use with input_dft = 'vdW-DF-cx0'    and 'vdW-DF-ahcx'            %
     %  * Unscreened and range-separated hybrid vdW-DF2-b86r functionals    %
     %    DOI: 10.1063/1.4986522 and DOI: 10.1103/PhysRevX.12.041003        %
     %    use with input_dft = 'vdW-DF2-br0' and 'vdW-DF2-ahbr'             %
     %                                                                      %
     %%%%%%%%%%%%%%%%%%%%%%%%%%%%%%%%%%%%%%%%%%%%%%%%%%%%%%%%%%%%%%%%%%%%%%%%


     Starting wfcs are   62 randomized atomic wfcs
     Checking if some PAW data can be deallocated... 

     total cpu time spent up to now is       28.7 secs

     per-process dynamical memory:   142.9 Mb

     Self-consistent Calculation

     iteration #  1     ecut=    80.00 Ry     beta= 0.10
     Davidson diagonalization with overlap
     ethr =  1.00E-02,  avg # of iterations =  4.1

     Threshold (ethr) on eigenvalues was too large:
     Diagonalizing with lowered threshold

     Davidson diagonalization with overlap
     ethr =  1.08E-04,  avg # of iterations =  5.2

     negative rho (up, down):  9.135E-05 0.000E+00

     total cpu time spent up to now is      131.0 secs

     total energy              =   -3113.99476754 Ry
     estimated scf accuracy    <       0.12811192 Ry

     iteration #  2     ecut=    80.00 Ry     beta= 0.10
     Davidson diagonalization with overlap
     ethr =  1.39E-04,  avg # of iterations =  1.0

     negative rho (up, down):  9.132E-05 0.000E+00

     total cpu time spent up to now is      168.8 secs

     total energy              =   -3113.95140902 Ry
     estimated scf accuracy    <       0.11670088 Ry

     iteration #  3     ecut=    80.00 Ry     beta= 0.10
     Davidson diagonalization with overlap
     ethr =  1.27E-04,  avg # of iterations =  2.3

     negative rho (up, down):  3.731E-05 0.000E+00

     total cpu time spent up to now is      218.9 secs

     total energy              =   -3113.96541669 Ry
     estimated scf accuracy    <       0.02505421 Ry

     iteration #  4     ecut=    80.00 Ry     beta= 0.10
     Davidson diagonalization with overlap
     ethr =  2.72E-05,  avg # of iterations =  3.0

     negative rho (up, down):  3.214E-06 0.000E+00

     total cpu time spent up to now is      262.2 secs

     total energy              =   -3113.96056922 Ry
     estimated scf accuracy    <       0.02181405 Ry

     iteration #  5     ecut=    80.00 Ry     beta= 0.10
     Davidson diagonalization with overlap
     ethr =  2.37E-05,  avg # of iterations =  5.1

     negative rho (up, down):  2.723E-06 0.000E+00

     total cpu time spent up to now is      313.2 secs

     total energy              =   -3113.96242479 Ry
     estimated scf accuracy    <       0.00283460 Ry

     iteration #  6     ecut=    80.00 Ry     beta= 0.10
     Davidson diagonalization with overlap
     c_bands:  1 eigenvalues not converged
     c_bands:  1 eigenvalues not converged
     c_bands:  1 eigenvalues not converged
     ethr =  3.08E-06,  avg # of iterations =  9.3

     negative rho (up, down):  3.391E-07 0.000E+00

     total cpu time spent up to now is      362.5 secs

     total energy              =   -3113.96133240 Ry
     estimated scf accuracy    <       0.00257609 Ry

     iteration #  7     ecut=    80.00 Ry     beta= 0.10
     Davidson diagonalization with overlap
     ethr =  2.80E-06,  avg # of iterations =  4.4

     negative rho (up, down):  2.089E-07 0.000E+00

     total cpu time spent up to now is      414.4 secs

     total energy              =   -3113.96125439 Ry
     estimated scf accuracy    <       0.00366246 Ry

     iteration #  8     ecut=    80.00 Ry     beta= 0.10
     Davidson diagonalization with overlap
     ethr =  2.80E-06,  avg # of iterations =  2.0

     negative rho (up, down):  3.201E-08 0.000E+00

     total cpu time spent up to now is      461.4 secs

     total energy              =   -3113.96140778 Ry
     estimated scf accuracy    <       0.00077491 Ry

     iteration #  9     ecut=    80.00 Ry     beta= 0.10
     Davidson diagonalization with overlap
     ethr =  8.42E-07,  avg # of iterations =  4.2

     negative rho (up, down):  3.835E-08 0.000E+00

     total cpu time spent up to now is      508.6 secs

     total energy              =   -3113.96139340 Ry
     estimated scf accuracy    <       0.00060917 Ry

     iteration # 10     ecut=    80.00 Ry     beta= 0.10
     Davidson diagonalization with overlap
     ethr =  6.62E-07,  avg # of iterations =  2.0

     total cpu time spent up to now is      552.7 secs

     total energy              =   -3113.96138650 Ry
     estimated scf accuracy    <       0.00052661 Ry

     iteration # 11     ecut=    80.00 Ry     beta= 0.10
     Davidson diagonalization with overlap
     ethr =  5.72E-07,  avg # of iterations =  1.7

     negative rho (up, down):  1.038E-08 0.000E+00

     total cpu time spent up to now is      594.2 secs

     total energy              =   -3113.96137846 Ry
     estimated scf accuracy    <       0.00045872 Ry

     iteration # 12     ecut=    80.00 Ry     beta= 0.10
     Davidson diagonalization with overlap
     ethr =  4.99E-07,  avg # of iterations =  4.7

     negative rho (up, down):  3.736E-03 0.000E+00

     total cpu time spent up to now is      640.9 secs

     total energy              =   -3113.96129763 Ry
     estimated scf accuracy    <       0.00044209 Ry

     iteration # 13     ecut=    80.00 Ry     beta= 0.10
     Davidson diagonalization with overlap
     ethr =  4.81E-07,  avg # of iterations =  4.9

     negative rho (up, down):  3.361E-03 0.000E+00

     total cpu time spent up to now is      689.0 secs

     total energy              =   -3113.96131414 Ry
     estimated scf accuracy    <       0.00023289 Ry

     iteration # 14     ecut=    80.00 Ry     beta= 0.10
     Davidson diagonalization with overlap
     ethr =  2.53E-07,  avg # of iterations =  1.4

     negative rho (up, down):  3.861E-03 0.000E+00

     total cpu time spent up to now is      731.1 secs

     total energy              =   -3113.96129979 Ry
     estimated scf accuracy    <       0.00023475 Ry

     iteration # 15     ecut=    80.00 Ry     beta= 0.10
     Davidson diagonalization with overlap
     ethr =  2.53E-07,  avg # of iterations =  1.4

     negative rho (up, down):  3.501E-03 0.000E+00

     total cpu time spent up to now is      772.6 secs

     total energy              =   -3113.96131380 Ry
     estimated scf accuracy    <       0.00016178 Ry

     iteration # 16     ecut=    80.00 Ry     beta= 0.10
     Davidson diagonalization with overlap
     ethr =  1.76E-07,  avg # of iterations =  1.0

     negative rho (up, down):  3.168E-03 0.000E+00

     total cpu time spent up to now is      812.1 secs

     total energy              =   -3113.96122807 Ry
     estimated scf accuracy    <       0.00016323 Ry

     iteration # 17     ecut=    80.00 Ry     beta= 0.10
     Davidson diagonalization with overlap
     ethr =  1.76E-07,  avg # of iterations =  5.0

     negative rho (up, down):  3.199E-03 0.000E+00

     total cpu time spent up to now is      861.0 secs

     total energy              =   -3113.96123997 Ry
     estimated scf accuracy    <       0.00008782 Ry

     iteration # 18     ecut=    80.00 Ry     beta= 0.10
     Davidson diagonalization with overlap
     ethr =  9.55E-08,  avg # of iterations =  1.0

     negative rho (up, down):  2.134E-03 0.000E+00

     total cpu time spent up to now is      898.4 secs

     total energy              =   -3113.96126932 Ry
     estimated scf accuracy    <       0.00008462 Ry

     iteration # 19     ecut=    80.00 Ry     beta= 0.10
     Davidson diagonalization with overlap
     ethr =  9.20E-08,  avg # of iterations =  4.5

     negative rho (up, down):  1.757E-03 0.000E+00

     total cpu time spent up to now is      975.3 secs

     total energy              =   -3113.96123070 Ry
     estimated scf accuracy    <       0.00007127 Ry

     iteration # 20     ecut=    80.00 Ry     beta= 0.10
     Davidson diagonalization with overlap
     ethr =  7.75E-08,  avg # of iterations =  2.0

     negative rho (up, down):  2.130E-03 0.000E+00

     total cpu time spent up to now is     1064.0 secs

     total energy              =   -3113.96125506 Ry
     estimated scf accuracy    <       0.00003650 Ry

     iteration # 21     ecut=    80.00 Ry     beta= 0.10
     Davidson diagonalization with overlap
     ethr =  3.97E-08,  avg # of iterations =  1.8

     negative rho (up, down):  2.226E-03 0.000E+00

     total cpu time spent up to now is     1142.1 secs

     total energy              =   -3113.96125732 Ry
     estimated scf accuracy    <       0.00002601 Ry

     iteration # 22     ecut=    80.00 Ry     beta= 0.10
     Davidson diagonalization with overlap
     ethr =  2.83E-08,  avg # of iterations =  2.0

     negative rho (up, down):  2.070E-03 0.000E+00

     total cpu time spent up to now is     1240.0 secs

     total energy              =   -3113.96126035 Ry
     estimated scf accuracy    <       0.00002978 Ry

     iteration # 23     ecut=    80.00 Ry     beta= 0.10
     Davidson diagonalization with overlap
     ethr =  2.83E-08,  avg # of iterations =  1.4

     negative rho (up, down):  1.656E-03 0.000E+00

     total cpu time spent up to now is     1322.0 secs

     total energy              =   -3113.96126200 Ry
     estimated scf accuracy    <       0.00001305 Ry

     iteration # 24     ecut=    80.00 Ry     beta= 0.10
     Davidson diagonalization with overlap
     ethr =  1.42E-08,  avg # of iterations =  2.0

     negative rho (up, down):  6.978E-04 0.000E+00

     total cpu time spent up to now is     1405.2 secs

     total energy              =   -3113.96125986 Ry
     estimated scf accuracy    <       0.00000637 Ry

     iteration # 25     ecut=    80.00 Ry     beta= 0.10
     Davidson diagonalization with overlap
     ethr =  6.93E-09,  avg # of iterations =  5.1

     negative rho (up, down):  6.322E-04 0.000E+00

     total cpu time spent up to now is     1493.3 secs

     total energy              =   -3113.96126157 Ry
     estimated scf accuracy    <       0.00000080 Ry

     iteration # 26     ecut=    80.00 Ry     beta= 0.10
     Davidson diagonalization with overlap
     ethr =  8.72E-10,  avg # of iterations =  2.0

     negative rho (up, down):  3.384E-04 0.000E+00

     total cpu time spent up to now is     1568.2 secs

     total energy              =   -3113.96126244 Ry
     estimated scf accuracy    <       0.00000056 Ry

     iteration # 27     ecut=    80.00 Ry     beta= 0.10
     Davidson diagonalization with overlap
     ethr =  6.08E-10,  avg # of iterations =  2.3

     negative rho (up, down):  3.315E-04 0.000E+00

     total cpu time spent up to now is     1661.9 secs

     total energy              =   -3113.96126165 Ry
     estimated scf accuracy    <       0.00000045 Ry

     iteration # 28     ecut=    80.00 Ry     beta= 0.10
     Davidson diagonalization with overlap
     ethr =  4.86E-10,  avg # of iterations =  2.1

     negative rho (up, down):  2.970E-04 0.000E+00

     total cpu time spent up to now is     1740.9 secs

     total energy              =   -3113.96126197 Ry
     estimated scf accuracy    <       0.00000013 Ry

     iteration # 29     ecut=    80.00 Ry     beta= 0.10
     Davidson diagonalization with overlap
     ethr =  1.37E-10,  avg # of iterations =  1.4

     negative rho (up, down):  1.690E-04 0.000E+00

     total cpu time spent up to now is     1812.2 secs

     End of self-consistent calculation

          k = 0.0000 0.0000 0.0000 ( 38015 PWs)   bands (ev):

   -74.8844 -74.8841 -48.1511 -48.1511 -48.1501 -48.1501 -48.1495 -48.1495
   -48.1480 -48.1480 -48.1207 -48.1207 -48.1196 -48.1196 -48.1188 -48.1188
   -48.1173 -48.1173 -48.1067 -48.1056 -48.1047 -48.1033 -39.0775 -39.0771
   -39.0424 -39.0424 -39.0417 -39.0417 -15.5139 -15.5108 -14.4431 -14.4412
    -6.9827  -6.9670  -3.3774  -3.3553  -3.3553  -3.3506  -3.3506  -3.2920
    -1.3664  -1.2861  -0.6914  -0.6914  -0.6893  -0.6892   0.2054   0.2054
     0.2076   0.2076   3.0753   3.4078   3.4079   3.4097   3.4098

          k = 0.0000 0.0722 0.0000 ( 37975 PWs)   bands (ev):

   -74.8840 -74.8837 -48.1511 -48.1509 -48.1500 -48.1499 -48.1495 -48.1493
   -48.1480 -48.1478 -48.1207 -48.1207 -48.1197 -48.1196 -48.1189 -48.1188
   -48.1174 -48.1174 -48.1066 -48.1055 -48.1046 -48.1032 -39.0757 -39.0752
   -39.0515 -39.0507 -39.0445 -39.0438 -15.4528 -15.4497 -14.4151 -14.4132
    -6.9003  -6.8846  -3.8576  -3.8267  -3.3206  -3.3159  -2.9501  -2.8974
    -1.4280  -1.3722  -0.9845  -0.9691  -0.9203  -0.9179   0.1823   0.2039
     0.4068   0.4086   3.0022   3.0819   3.2815   3.3662   3.3681

          k = 0.0000 0.1443 0.0000 ( 37895 PWs)   bands (ev):

   -74.8829 -74.8826 -48.1511 -48.1504 -48.1500 -48.1495 -48.1493 -48.1488
   -48.1480 -48.1473 -48.1209 -48.1208 -48.1199 -48.1197 -48.1190 -48.1189
   -48.1176 -48.1174 -48.1063 -48.1052 -48.1043 -48.1029 -39.0773 -39.0766
   -39.0704 -39.0700 -39.0505 -39.0498 -15.2737 -15.2707 -14.3331 -14.3312
    -6.6605  -6.6448  -4.3577  -4.3354  -3.2375  -3.2329  -2.7251  -2.6776
    -2.0433  -2.0332  -1.3038  -1.3012  -1.2193  -1.1672   0.1690   0.2178
     0.7107   0.7121   2.4326   2.5355   3.2897   3.2917   3.6107

          k = 0.0000 0.2165 0.0000 ( 37851 PWs)   bands (ev):

   -74.8812 -74.8809 -48.1511 -48.1500 -48.1496 -48.1495 -48.1486 -48.1480
   -48.1480 -48.1465 -48.1213 -48.1209 -48.1202 -48.1198 -48.1193 -48.1189
   -48.1179 -48.1175 -48.1059 -48.1048 -48.1039 -48.1026 -39.1156 -39.1149
   -39.0627 -39.0623 -39.0596 -39.0588 -14.9903 -14.9874 -14.2037 -14.2017
    -6.2927  -6.2773  -4.8067  -4.7907  -3.2994  -3.2949  -3.1745  -3.1700
    -2.4684  -2.4260  -1.5964  -1.5936  -1.3475  -1.3154   0.1980   0.2636
     0.9134   0.9145   2.1002   2.2492   3.2631   3.2653   4.0149

          k = 0.0000 0.2887 0.0000 ( 37919 PWs)   bands (ev):

   -74.8792 -74.8789 -48.1511 -48.1500 -48.1495 -48.1488 -48.1480 -48.1477
   -48.1471 -48.1456 -48.1216 -48.1210 -48.1206 -48.1199 -48.1196 -48.1190
   -48.1182 -48.1176 -48.1055 -48.1044 -48.1035 -48.1021 -39.1605 -39.1597
   -39.0702 -39.0695 -39.0536 -39.0532 -14.6295 -14.6266 -14.0355 -14.0335
    -5.9006  -5.8874  -5.1212  -5.1090  -4.3567  -4.3532  -3.2200  -3.2157
    -2.6333  -2.6029  -1.6941  -1.6911  -1.6434  -1.6274   0.3532   0.4230
     1.0181   1.0191   2.2163   2.4108   3.3081   3.3107   4.4709

          k = 0.0000 0.3608 0.0000 ( 37933 PWs)   bands (ev):

   -74.8772 -74.8769 -48.1511 -48.1501 -48.1495 -48.1480 -48.1479 -48.1468
   -48.1463 -48.1448 -48.1220 -48.1211 -48.1209 -48.1201 -48.1199 -48.1191
   -48.1185 -48.1177 -48.1051 -48.1040 -48.1031 -48.1017 -39.2050 -39.2043
   -39.0808 -39.0801 -39.0445 -39.0441 -14.2449 -14.2421 -13.8305 -13.8283
    -5.9078  -5.9026  -5.3345  -5.3286  -4.9204  -4.9078  -3.3690  -3.3650
    -2.9729  -2.9555  -1.9458  -1.9335  -1.6336  -1.6305   0.6975   0.7584
     1.1113   1.1124   2.6467   2.8647   3.3817   3.3849   4.8959

          k = 0.0000 0.4330 0.0000 ( 37998 PWs)   bands (ev):

   -74.8755 -74.8752 -48.1512 -48.1501 -48.1495 -48.1480 -48.1471 -48.1461
   -48.1455 -48.1440 -48.1224 -48.1213 -48.1213 -48.1202 -48.1201 -48.1192
   -48.1187 -48.1177 -48.1047 -48.1036 -48.1027 -48.1013 -39.2425 -39.2417
   -39.0898 -39.0890 -39.0367 -39.0363 -13.9403 -13.9376 -13.5674 -13.5653
    -6.5212  -6.5182  -5.6041  -5.5977  -4.6956  -4.6873  -3.5336  -3.5296
    -3.2642  -3.2501  -2.1313  -2.1221  -1.5380  -1.5352   1.1714   1.2169
     1.2501   1.2514   3.1679   3.3465   3.4433   3.4471   4.5275

          k = 0.0000 0.5052 0.0000 ( 38048 PWs)   bands (ev):

   -74.8743 -74.8740 -48.1513 -48.1502 -48.1495 -48.1480 -48.1467 -48.1456
   -48.1451 -48.1435 -48.1226 -48.1215 -48.1213 -48.1203 -48.1202 -48.1192
   -48.1189 -48.1178 -48.1044 -48.1034 -48.1025 -48.1011 -39.2674 -39.2666
   -39.0957 -39.0950 -39.0315 -39.0311 -13.7788 -13.7759 -13.2991 -13.2970
    -7.0853  -7.0822  -5.6209  -5.6165  -4.7691  -4.7649  -3.6503  -3.6464
    -3.1962  -3.1835  -2.2475  -2.2419  -1.4766  -1.4740   1.3994   1.4011
     1.6526   1.6800   3.4208   3.4784   3.4796   3.4838   4.4099

          k = 0.0000-0.5774 0.0000 ( 38024 PWs)   bands (ev):

   -74.8739 -74.8736 -48.1513 -48.1502 -48.1494 -48.1479 -48.1465 -48.1454
   -48.1449 -48.1434 -48.1227 -48.1216 -48.1214 -48.1203 -48.1203 -48.1192
   -48.1189 -48.1178 -48.1044 -48.1033 -48.1024 -48.1010 -39.2762 -39.2754
   -39.0978 -39.0971 -39.0297 -39.0293 -13.7290 -13.7261 -13.1847 -13.1826
    -7.2981  -7.2949  -5.5846  -5.5823  -4.8912  -4.8869  -3.6917  -3.6878
    -3.0787  -3.0691  -2.2998  -2.2955  -1.4576  -1.4550   1.4660   1.4678
     1.8840   1.8954   3.4500   3.4911   3.4925   3.4954   4.1628

          k = 0.0625 0.1083 0.0000 ( 37895 PWs)   bands (ev):

   -74.8833 -74.8830 -48.1511 -48.1506 -48.1500 -48.1495 -48.1495 -48.1490
   -48.1479 -48.1474 -48.1209 -48.1207 -48.1198 -48.1197 -48.1190 -48.1188
   -48.1175 -48.1174 -48.1064 -48.1053 -48.1044 -48.1030 -39.0722 -39.0718
   -39.0686 -39.0679 -39.0488 -39.0481 -15.3326 -15.3296 -14.3601 -14.3582
    -6.7388  -6.7230  -4.2243  -4.1998  -3.2694  -3.2648  -2.7497  -2.6969
    -1.7838  -1.7740  -1.3141  -1.3093  -1.1291  -1.0772   0.2422   0.2823
     0.5592   0.5606   2.6544   2.7476   3.2185   3.2315   3.5264

          k = 0.0625 0.1804 0.0000 ( 37885 PWs)   bands (ev):

   -74.8818 -74.8816 -48.1510 -48.1500 -48.1500 -48.1495 -48.1489 -48.1483
   -48.1479 -48.1468 -48.1211 -48.1208 -48.1201 -48.1198 -48.1192 -48.1189
   -48.1177 -48.1175 -48.1061 -48.1050 -48.1041 -48.1027 -39.1000 -39.0992
   -39.0659 -39.0654 -39.0570 -39.0563 -15.1010 -15.0980 -14.2545 -14.2526
    -6.4309  -6.4152  -4.6527  -4.6346  -3.2608  -3.2564  -2.8142  -2.7928
    -2.4775  -2.4567  -1.6600  -1.6491  -1.1602  -1.1141   0.2977   0.3471
     0.6602   0.6720   2.3564   2.4815   3.0748   3.0844   3.8756

          k = 0.0625 0.2526 0.0000 ( 37916 PWs)   bands (ev):

   -74.8800 -74.8797 -48.1510 -48.1500 -48.1494 -48.1492 -48.1481 -48.1479
   -48.1476 -48.1460 -48.1215 -48.1210 -48.1204 -48.1199 -48.1195 -48.1190
   -48.1180 -48.1176 -48.1057 -48.1046 -48.1037 -48.1023 -39.1406 -39.1399
   -39.0680 -39.0673 -39.0571 -39.0567 -14.7770 -14.7741 -14.1066 -14.1046
    -6.0247  -6.0098  -5.0235  -5.0101  -3.9014  -3.8984  -3.2000  -3.1949
    -2.6101  -2.5855  -1.9197  -1.9101  -1.2200  -1.1936   0.2536   0.3040
     0.8586   0.8873   2.2795   2.4235   3.0745   3.1052   4.2968

          k = 0.0625 0.3248 0.0000 ( 37964 PWs)   bands (ev):

   -74.8780 -74.8777 -48.1510 -48.1500 -48.1494 -48.1483 -48.1479 -48.1473
   -48.1467 -48.1452 -48.1219 -48.1211 -48.1208 -48.1200 -48.1198 -48.1191
   -48.1183 -48.1177 -48.1052 -48.1042 -48.1033 -48.1019 -39.1843 -39.1835
   -39.0796 -39.0789 -39.0481 -39.0477 -14.3974 -14.3947 -13.9244 -13.9223
    -5.7505  -5.7409  -5.1915  -5.1816  -4.8263  -4.8201  -3.4328  -3.4280
    -2.7195  -2.7026  -2.2460  -2.2425  -1.2711  -1.2565   0.3684   0.4165
     1.1158   1.1406   2.4405   2.5835   3.1936   3.2647   4.7733

          k = 0.0625 0.3969 0.0000 ( 37981 PWs)   bands (ev):

   -74.8761 -74.8758 -48.1511 -48.1500 -48.1494 -48.1479 -48.1475 -48.1465
   -48.1459 -48.1444 -48.1222 -48.1212 -48.1211 -48.1201 -48.1200 -48.1192
   -48.1186 -48.1177 -48.1048 -48.1038 -48.1029 -48.1015 -39.2243 -39.2235
   -39.0903 -39.0896 -39.0397 -39.0393 -14.0398 -14.0371 -13.6981 -13.6959
    -6.1342  -6.1312  -5.5130  -5.5063  -4.7723  -4.7606  -3.6818  -3.6769
    -2.9824  -2.9729  -2.4750  -2.4708  -1.2619  -1.2537   0.6681   0.7033
     1.3882   1.4072   2.7497   2.8427   3.3887   3.5105   4.9142

          k = 0.0625 0.4691 0.0000 ( 38057 PWs)   bands (ev):

   -74.8747 -74.8744 -48.1511 -48.1500 -48.1493 -48.1478 -48.1469 -48.1459
   -48.1453 -48.1438 -48.1225 -48.1214 -48.1213 -48.1202 -48.1202 -48.1193
   -48.1188 -48.1178 -48.1045 -48.1035 -48.1026 -48.1012 -39.2548 -39.2540
   -39.0985 -39.0978 -39.0332 -39.0328 -13.8121 -13.8094 -13.4182 -13.4160
    -6.7867  -6.7837  -5.6163  -5.6109  -4.6547  -4.6493  -3.7959  -3.7909
    -3.1500  -3.1408  -2.5714  -2.5677  -1.2649  -1.2606   1.0527   1.0721
     1.6619   1.6777   3.0047   3.0408   3.5770   3.6523   4.5764

          k = 0.0625 0.5413 0.0000 ( 38034 PWs)   bands (ev):

   -74.8739 -74.8736 -48.1511 -48.1501 -48.1493 -48.1478 -48.1466 -48.1455
   -48.1450 -48.1435 -48.1226 -48.1215 -48.1214 -48.1203 -48.1203 -48.1193
   -48.1189 -48.1178 -48.1044 -48.1033 -48.1024 -48.1010 -39.2712 -39.2704
   -39.1030 -39.1022 -39.0297 -39.0293 -13.7126 -13.7097 -13.2116 -13.2096
    -7.1859  -7.1828  -5.5896  -5.5866  -4.8120  -4.8078  -3.8049  -3.8011
    -3.0724  -3.0639  -2.6211  -2.6188  -1.2910  -1.2883   1.3657   1.3714
     1.8363   1.8475   3.1734   3.1853   3.5077   3.5525   4.4594

          k = 0.1250 0.2165 0.0000 ( 37933 PWs)   bands (ev):

   -74.8803 -74.8800 -48.1510 -48.1499 -48.1494 -48.1493 -48.1483 -48.1479
   -48.1478 -48.1462 -48.1214 -48.1209 -48.1204 -48.1199 -48.1194 -48.1190
   -48.1180 -48.1176 -48.1057 -48.1047 -48.1038 -48.1024 -39.1323 -39.1316
   -39.0687 -39.0680 -39.0583 -39.0578 -14.8275 -14.8246 -14.1311 -14.1291
    -6.0695  -6.0541  -4.9758  -4.9619  -3.7355  -3.7321  -2.9861  -2.9662
    -2.8980  -2.8945  -1.9211  -1.9012  -1.0564  -1.0164   0.2699   0.2882
     0.6745   0.7345   2.5978   2.6931   2.6947   2.7683   4.2420

          k = 0.1250 0.2887 0.0000 ( 37936 PWs)   bands (ev):

   -74.8784 -74.8781 -48.1509 -48.1498 -48.1493 -48.1486 -48.1477 -48.1476
   -48.1470 -48.1455 -48.1218 -48.1211 -48.1207 -48.1200 -48.1196 -48.1192
   -48.1182 -48.1177 -48.1053 -48.1043 -48.1034 -48.1020 -39.1696 -39.1689
   -39.0825 -39.0817 -39.0500 -39.0496 -14.4784 -14.4756 -13.9728 -13.9708
    -5.6533  -5.6400  -5.2317  -5.2209  -4.5438  -4.5403  -3.4410  -3.4329
    -2.9751  -2.9708  -2.2014  -2.1895  -0.9385  -0.9097   0.0811   0.1139
     1.0610   1.1122   2.3823   2.4102   2.9607   3.1367   4.6876

          k = 0.1250 0.3608 0.0000 ( 38000 PWs)   bands (ev):

   -74.8765 -74.8763 -48.1508 -48.1497 -48.1491 -48.1479 -48.1476 -48.1469
   -48.1463 -48.1448 -48.1221 -48.1212 -48.1210 -48.1201 -48.1199 -48.1193
   -48.1185 -48.1178 -48.1049 -48.1039 -48.1030 -48.1016 -39.2064 -39.2056
   -39.0966 -39.0959 -39.0416 -39.0412 -14.1034 -14.1007 -13.7852 -13.7829
    -5.7202  -5.7161  -5.3703  -5.3649  -4.9059  -4.8921  -3.8272  -3.8218
    -3.0785  -3.0750  -2.6336  -2.6281  -0.8548  -0.8365   0.1907   0.2252
     1.4574   1.4889   2.2991   2.3334   3.3218   3.5092   5.1712

          k = 0.1250 0.4330 0.0000 ( 38048 PWs)   bands (ev):

   -74.8750 -74.8747 -48.1508 -48.1497 -48.1490 -48.1475 -48.1474 -48.1463
   -48.1458 -48.1442 -48.1224 -48.1213 -48.1213 -48.1203 -48.1201 -48.1194
   -48.1187 -48.1179 -48.1046 -48.1035 -48.1026 -48.1012 -39.2372 -39.2364
   -39.1087 -39.1079 -39.0345 -39.0341 -13.8105 -13.8079 -13.5409 -13.5387
    -6.3525  -6.3495  -5.5628  -5.5571  -4.5596  -4.5505  -4.0775  -4.0717
    -3.2078  -3.2052  -3.0033  -2.9985  -0.8712  -0.8607   0.5474   0.5744
     1.7529   1.7664   2.4038   2.4367   3.6433   3.7807   5.0609

          k = 0.1250 0.5052 0.0000 ( 38027 PWs)   bands (ev):

   -74.8739 -74.8736 -48.1508 -48.1497 -48.1489 -48.1474 -48.1469 -48.1459
   -48.1454 -48.1438 -48.1225 -48.1215 -48.1214 -48.1204 -48.1202 -48.1194
   -48.1188 -48.1180 -48.1044 -48.1033 -48.1024 -48.1010 -39.2577 -39.2569
   -39.1168 -39.1160 -39.0297 -39.0294 -13.6646 -13.6618 -13.2845 -13.2824
    -6.8731  -6.8701  -5.5853  -5.5814  -4.6187  -4.6145  -4.0430  -4.0380
    -3.2967  -3.2945  -3.1075  -3.1018  -0.9570  -0.9510   1.0078   1.0240
     1.8386   1.8440   2.6058   2.6295   3.6842   3.7335   4.8896

          k = 0.1250 0.5774 0.0000 ( 37968 PWs)   bands (ev):

   -74.8735 -74.8733 -48.1508 -48.1497 -48.1489 -48.1474 -48.1468 -48.1457
   -48.1452 -48.1437 -48.1226 -48.1215 -48.1215 -48.1204 -48.1203 -48.1194
   -48.1189 -48.1180 -48.1043 -48.1032 -48.1023 -48.1009 -39.2649 -39.2641
   -39.1196 -39.1189 -39.0281 -39.0277 -13.6198 -13.6170 -13.1771 -13.1749
    -7.0662  -7.0631  -5.5685  -5.5661  -4.7244  -4.7202  -4.0208  -4.0172
    -3.3163  -3.3145  -3.0756  -3.0705  -1.0083  -1.0032   1.3081   1.3117
     1.7471   1.7531   2.7531   2.7566   3.5542   3.6026   4.9083

          k = 0.1875 0.3248 0.0000 ( 37987 PWs)   bands (ev):

   -74.8767 -74.8764 -48.1507 -48.1496 -48.1490 -48.1481 -48.1475 -48.1471
   -48.1465 -48.1450 -48.1221 -48.1212 -48.1210 -48.1201 -48.1198 -48.1193
   -48.1184 -48.1179 -48.1050 -48.1039 -48.1030 -48.1016 -39.1983 -39.1975
   -39.1006 -39.0999 -39.0423 -39.0419 -14.1254 -14.1227 -13.8154 -13.8132
    -5.4187  -5.4113  -5.3944  -5.3909  -4.9825  -4.9697  -3.8298  -3.8228
    -3.3847  -3.3815  -2.5120  -2.5069  -0.6062  -0.5804  -0.0758  -0.0447
     1.4589   1.4993   2.1174   2.1307   3.3046   3.5086   5.1529

          k = 0.1875 0.3969 0.0000 ( 38014 PWs)   bands (ev):

   -74.8751 -74.8748 -48.1505 -48.1494 -48.1487 -48.1477 -48.1472 -48.1466
   -48.1461 -48.1446 -48.1223 -48.1213 -48.1212 -48.1203 -48.1200 -48.1195
   -48.1186 -48.1180 -48.1046 -48.1036 -48.1027 -48.1013 -39.2229 -39.2221
   -39.1190 -39.1183 -39.0352 -39.0348 -13.7826 -13.7800 -13.6355 -13.6332
    -5.9348  -5.9320  -5.5160  -5.5102  -4.6084  -4.5956  -4.1818  -4.1766
    -3.7289  -3.7260  -2.9137  -2.9121  -0.4365  -0.4197   0.0713   0.0973
     1.7836   1.8049   2.0269   2.0509   3.6743   3.8409   5.5377

          k = 0.1875 0.4691 0.0000 ( 38010 PWs)   bands (ev):

   -74.8739 -74.8736 -48.1503 -48.1492 -48.1485 -48.1474 -48.1470 -48.1463
   -48.1458 -48.1443 -48.1224 -48.1215 -48.1213 -48.1204 -48.1202 -48.1195
   -48.1187 -48.1181 -48.1044 -48.1033 -48.1024 -48.1010 -39.2409 -39.2401
   -39.1340 -39.1332 -39.0298 -39.0294 -13.5889 -13.5863 -13.3843 -13.3820
    -6.4497  -6.4468  -5.5659  -5.5618  -4.4337  -4.4295  -4.2371  -4.2291
    -3.9804  -3.9778  -3.2116  -3.2097  -0.5276  -0.5182   0.5167   0.5334
     1.8502   1.8568   2.1891   2.2213   3.8626   3.9328   5.2119

          k = 0.1875 0.5413 0.0000 ( 38010 PWs)   bands (ev):

   -74.8733 -74.8730 -48.1502 -48.1491 -48.1484 -48.1472 -48.1469 -48.1461
   -48.1456 -48.1441 -48.1225 -48.1216 -48.1214 -48.1205 -48.1202 -48.1196
   -48.1188 -48.1181 -48.1042 -48.1032 -48.1023 -48.1009 -39.2502 -39.2495
   -39.1423 -39.1416 -39.0268 -39.0264 -13.5105 -13.5077 -13.2006 -13.1984
    -6.7493  -6.7463  -5.5730  -5.5701  -4.5650  -4.5611  -4.1715  -4.1677
    -4.0580  -4.0560  -3.2648  -3.2620  -0.6348  -0.6283   0.9914   0.9986
     1.6213   1.6241   2.4711   2.4937   3.6749   3.7177   5.2196

          k = 0.2500 0.4330 0.0000 ( 38031 PWs)   bands (ev):

   -74.8739 -74.8736 -48.1500 -48.1490 -48.1483 -48.1476 -48.1468 -48.1465
   -48.1460 -48.1445 -48.1224 -48.1215 -48.1213 -48.1205 -48.1201 -48.1196
   -48.1187 -48.1182 -48.1044 -48.1033 -48.1024 -48.1010 -39.2320 -39.2312
   -39.1430 -39.1422 -39.0298 -39.0294 -13.5027 -13.5003 -13.4803 -13.4777
    -6.1957  -6.1929  -5.5629  -5.5588  -4.4152  -4.4122  -4.3814  -4.3760
    -4.1737  -4.1663  -3.2824  -3.2810  -0.0479  -0.0292   0.0087   0.0155
     1.8343   1.8476   2.0645   2.0952   3.9369   4.0226   5.3926

          k = 0.2500 0.5052 0.0000 ( 38019 PWs)   bands (ev):

   -74.8731 -74.8728 -48.1497 -48.1486 -48.1480 -48.1475 -48.1467 -48.1462
   -48.1460 -48.1445 -48.1224 -48.1217 -48.1213 -48.1206 -48.1202 -48.1197
   -48.1188 -48.1182 -48.1042 -48.1031 -48.1023 -48.1009 -39.2342 -39.2335
   -39.1628 -39.1620 -39.0261 -39.0258 -13.4035 -13.4009 -13.2659 -13.2635
    -6.3671  -6.3642  -5.5922  -5.5891  -4.8086  -4.8058  -4.3773  -4.3730
    -4.0477  -4.0426  -3.5452  -3.5440  -0.1537  -0.1454   0.4431   0.4487
     1.5615   1.5631   2.3951   2.4362   3.8527   3.8734   5.1128

          k = 0.2500 0.5774 0.0000 ( 38023 PWs)   bands (ev):

   -74.8728 -74.8726 -48.1495 -48.1484 -48.1479 -48.1475 -48.1467 -48.1461
   -48.1461 -48.1445 -48.1223 -48.1218 -48.1213 -48.1207 -48.1203 -48.1197
   -48.1189 -48.1183 -48.1042 -48.1031 -48.1022 -48.1008 -39.2338 -39.2330
   -39.1709 -39.1702 -39.0249 -39.0245 -13.3682 -13.3656 -13.1859 -13.1836
    -6.4251  -6.4222  -5.5993  -5.5964  -4.9768  -4.9739  -4.2122  -4.2109
    -4.2074  -4.2040  -3.5625  -3.5612  -0.2138  -0.2073   0.8023   0.8047
     1.2249   1.2271   2.6916   2.7104   3.6032   3.6283   5.0329

          k = 0.3125 0.5413 0.0000 ( 38095 PWs)   bands (ev):

   -74.8727 -74.8724 -48.1492 -48.1481 -48.1480 -48.1472 -48.1470 -48.1464
   -48.1457 -48.1449 -48.1222 -48.1219 -48.1212 -48.1208 -48.1203 -48.1197
   -48.1189 -48.1183 -48.1041 -48.1031 -48.1022 -48.1008 -39.2189 -39.2181
   -39.1901 -39.1893 -39.0242 -39.0238 -13.2809 -13.2784 -13.2189 -13.2164
    -6.1146  -6.1119  -5.6290  -5.6259  -5.4149  -5.4120  -4.2221  -4.2185
    -3.9258  -3.9230  -3.8950  -3.8921   0.2254   0.2343   0.4074   0.4121
     1.0770   1.0789   2.8863   2.9250   3.5278   3.5483   4.8351

     the Fermi energy is    -0.0100 ev

!    total energy              =   -3113.96126246 Ry
     total all-electron energy =    -83998.685827 Ry
     estimated scf accuracy    <       0.00000009 Ry
     smearing contrib. (-TS)   =       0.00043866 Ry
     internal energy E=F+TS    =   -3113.96170111 Ry

     The total energy is F=E-TS. E is the sum of the following terms:
     one-electron contribution =  -24071.16075327 Ry
     hartree contribution      =   12022.73087798 Ry
     xc contribution           =    -193.57553193 Ry
     ewald contribution        =   10889.35771564 Ry
     one-center paw contrib.   =   -1761.31400954 Ry

     convergence has been achieved in  29 iterations

     Writing all to output data dir ./tmp/cleave_013/wse2_cleave_013.save/ :
     XML data file, charge density, pseudopotentials, collected wavefunctions

     init_run     :     28.16s CPU     28.51s WALL (       1 calls)
     electrons    :   1619.10s CPU   1783.61s WALL (       1 calls)

     Called by init_run:
     wfcinit      :     15.26s CPU     15.35s WALL (       1 calls)
     potinit      :     11.85s CPU     11.94s WALL (       1 calls)
     hinit0       :      0.10s CPU      0.11s WALL (       1 calls)

     Called by electrons:
     c_bands      :   1325.82s CPU   1448.68s WALL (      30 calls)
     sum_band     :    197.61s CPU    217.74s WALL (      30 calls)
     v_of_rho     :     47.57s CPU     54.90s WALL (      30 calls)
     newd         :     22.14s CPU     29.90s WALL (      30 calls)
     PAW_pot      :      3.55s CPU      4.21s WALL (      30 calls)
     mix_rho      :     34.02s CPU     39.81s WALL (      30 calls)
     vdW_kernel   :     10.92s CPU     10.92s WALL (       1 calls)

     Called by c_bands:
     init_us_2    :      5.57s CPU      5.96s WALL (    1830 calls)
     cegterg      :   1293.07s CPU   1413.14s WALL (     900 calls)

     Called by *egterg:
     cdiaghg      :     15.50s CPU     17.35s WALL (    3577 calls)
     h_psi        :    599.10s CPU    660.34s WALL (    3637 calls)
     s_psi        :    108.61s CPU    116.29s WALL (    3637 calls)
     g_psi        :      1.23s CPU      1.35s WALL (    2707 calls)

     Called by h_psi:
     h_psi:calbec :    181.47s CPU    195.70s WALL (    3637 calls)
     vloc_psi     :    287.24s CPU    323.69s WALL (    3637 calls)
                                        0.00s GPU  (    3637 calls)
     add_vuspsi   :    128.76s CPU    139.23s WALL (    3637 calls)

     General routines
     calbec       :    266.75s CPU    286.35s WALL (    4537 calls)
     fft          :     27.83s CPU     32.91s WALL (    1889 calls)
     ffts         :     10.75s CPU     12.34s WALL (    3504 calls)
     fftw         :    337.43s CPU    380.08s WALL (  267202 calls)
     interpolate  :      0.47s CPU      0.58s WALL (      30 calls)

     Parallel routines

     PWSCF        :  27m35.27s CPU  30m22.70s WALL


   This run was terminated on:  15:41:50  18Jun2026            

=------------------------------------------------------------------------------=
   JOB DONE.
=------------------------------------------------------------------------------=
Note: The following floating-point exceptions are signalling: IEEE_UNDERFLOW_FLAG IEEE_DENORMAL
Note: The following floating-point exceptions are signalling: IEEE_UNDERFLOW_FLAG IEEE_DENORMAL
Note: The following floating-point exceptions are signalling: IEEE_UNDERFLOW_FLAG IEEE_DENORMAL
Note: The following floating-point exceptions are signalling: IEEE_UNDERFLOW_FLAG IEEE_DENORMAL
Note: The following floating-point exceptions are signalling: IEEE_UNDERFLOW_FLAG IEEE_DENORMAL
Note: The following floating-point exceptions are signalling: IEEE_UNDERFLOW_FLAG IEEE_DENORMAL
Note: The following floating-point exceptions are signalling: IEEE_UNDERFLOW_FLAG IEEE_DENORMAL
Note: The following floating-point exceptions are signalling: IEEE_UNDERFLOW_FLAG IEEE_DENORMAL
Note: The following floating-point exceptions are signalling: IEEE_UNDERFLOW_FLAG IEEE_DENORMAL
Note: The following floating-point exceptions are signalling: IEEE_UNDERFLOW_FLAG IEEE_DENORMAL
Note: The following floating-point exceptions are signalling: IEEE_UNDERFLOW_FLAG IEEE_DENORMAL
Note: The following floating-point exceptions are signalling: IEEE_UNDERFLOW_FLAG IEEE_DENORMAL
