
     Program PWSCF v.7.5 starts on 18Jun2026 at 12:39:37 

     This program is part of the open-source Quantum ESPRESSO suite
     for quantum simulation of materials; please cite
         "P. Giannozzi et al., J. Phys.:Condens. Matter 21 395502 (2009);
         "P. Giannozzi et al., J. Phys.:Condens. Matter 29 465901 (2017);
         "P. Giannozzi et al., J. Chem. Phys. 152 154105 (2020);
          URL http://www.quantum-espresso.org", 
     in publications or presentations arising from this work. More details at
     http://www.quantum-espresso.org/quote

     Parallel version (MPI), running on    12 processors

     MPI processes distributed on     1 nodes
     38411 MiB available memory on the printing compute node when the environment starts

     Waiting for input...
     Reading input from standard input

     Current dimensions of program PWSCF are:
     Max number of different atomic species (ntypx) = 10
     Max number of k-points (npk) =  40000
     Max angular momentum in pseudopotentials (lmaxx) =  4
     file W.pbe-spn-kjpaw_psl.1.0.0.UPF: wavefunction(s)  6S 5P 5D renormalized
     file Se.pbe-dn-kjpaw_psl.1.0.0.UPF: wavefunction(s)  4S 4P 3D renormalized

     IMPORTANT: XC functional enforced from input :
     Exchange-correlation= VDW-DF2-B86R
                           (   1   4  26   0   2   0   0)
     Any further DFT definition will be discarded
     Please, verify this is what you really want


     R & G space division:  proc/nbgrp/npool/nimage =      12
     Subspace diagonalization in iterative solution of the eigenvalue problem:
     a serial algorithm will be used


     Parallelization info
     --------------------
     sticks:   dense  smooth     PW     G-vecs:    dense   smooth      PW
     Min         139      70     20                71489    25322    3895
     Max         140      71     22                71558    25395    3945
     Sum        1675     847    253               858263   304337   46813

     Using Slab Decomposition



     bravais-lattice index     =            4
     lattice parameter (alat)  =       6.1983  a.u.
     unit-cell volume          =    3143.7277 (a.u.)^3
     number of atoms/cell      =            6
     number of atomic types    =            2
     number of electrons       =        92.00
     number of Kohn-Sham states=           55
     kinetic-energy cutoff     =      80.0000  Ry
     charge density cutoff     =     640.0000  Ry
     scf convergence threshold =      1.0E-07
     mixing beta               =       0.1000
     number of iterations used =           12  local-TF  mixing
     Exchange-correlation= VDW-DF2-B86R
                           (   1   4  26   0   2   0   0)

     celldm(1)=   6.198302  celldm(2)=   0.000000  celldm(3)=  15.243902
     celldm(4)=   0.000000  celldm(5)=   0.000000  celldm(6)=   0.000000

     crystal axes: (cart. coord. in units of alat)
               a(1) = (   1.000000   0.000000   0.000000 )  
               a(2) = (  -0.500000   0.866025   0.000000 )  
               a(3) = (   0.000000   0.000000  15.243902 )  

     reciprocal axes: (cart. coord. in units 2 pi/alat)
               b(1) = (  1.000000  0.577350 -0.000000 )  
               b(2) = (  0.000000  1.154701  0.000000 )  
               b(3) = (  0.000000 -0.000000  0.065600 )  


     PseudoPot. # 1 for W  read from file:
     ./pseudo/W.pbe-spn-kjpaw_psl.1.0.0.UPF
     MD5 check sum: 03c3df5b60893f488392c7401945500a
     Pseudo is Projector augmented-wave + core cor, Zval = 14.0
     Generated using &quot;atomic&quot; code by A. Dal Corso  v.6.2.2
     Shape of augmentation charge: PSQ
     Using radial grid of 1273 points,  6 beta functions with: 
                l(1) =   0
                l(2) =   0
                l(3) =   1
                l(4) =   1
                l(5) =   2
                l(6) =   2
     Q(r) pseudized with 0 coefficients 


     PseudoPot. # 2 for Se read from file:
     ./pseudo/Se.pbe-dn-kjpaw_psl.1.0.0.UPF
     MD5 check sum: ac240dd2bae32a30e0bf3a38df9c8785
     Pseudo is Projector augmented-wave + core cor, Zval = 16.0
     Generated using &quot;atomic&quot; code by A. Dal Corso  v.6.3
     Shape of augmentation charge: PSQ
     Using radial grid of 1211 points,  6 beta functions with: 
                l(1) =   0
                l(2) =   0
                l(3) =   1
                l(4) =   1
                l(5) =   2
                l(6) =   2
     Q(r) pseudized with 0 coefficients 


     atomic species   valence    mass     pseudopotential
     W                14.00   183.84000     W ( 1.00)
     Se               16.00    78.96000     Se( 1.00)

      6 Sym. Ops. (no inversion) found



   Cartesian axes

     site n.     atom                  positions (alat units)
         1        Se     tau(   1) = (  -0.0000005   0.5773506   6.1149390  )
         2        W      tau(   2) = (   0.0000000   0.0000000   6.6383232  )
         3        Se     tau(   3) = (   0.5000005   0.2886748   7.1618445  )
         4        Se     tau(   4) = (  -0.0000005   0.5773506   8.1426067  )
         5        W      tau(   5) = (   0.5000005   0.2886748   8.6658537  )
         6        Se     tau(   6) = (   0.0000000   0.0000000   9.1899390  )

     number of k points=    30  Methfessel-Paxton smearing, width (Ry)=  0.0200
                       cart. coord. in units 2pi/alat
        k(    1) = (   0.0000000   0.0000000   0.0000000), wk =   0.0078125
        k(    2) = (   0.0000000   0.0721688   0.0000000), wk =   0.0468750
        k(    3) = (   0.0000000   0.1443376   0.0000000), wk =   0.0468750
        k(    4) = (   0.0000000   0.2165064   0.0000000), wk =   0.0468750
        k(    5) = (   0.0000000   0.2886751   0.0000000), wk =   0.0468750
        k(    6) = (   0.0000000   0.3608439   0.0000000), wk =   0.0468750
        k(    7) = (   0.0000000   0.4330127   0.0000000), wk =   0.0468750
        k(    8) = (   0.0000000   0.5051815   0.0000000), wk =   0.0468750
        k(    9) = (   0.0000000  -0.5773503   0.0000000), wk =   0.0234375
        k(   10) = (   0.0625000   0.1082532   0.0000000), wk =   0.0468750
        k(   11) = (   0.0625000   0.1804220   0.0000000), wk =   0.0937500
        k(   12) = (   0.0625000   0.2525907   0.0000000), wk =   0.0937500
        k(   13) = (   0.0625000   0.3247595   0.0000000), wk =   0.0937500
        k(   14) = (   0.0625000   0.3969283   0.0000000), wk =   0.0937500
        k(   15) = (   0.0625000   0.4690971   0.0000000), wk =   0.0937500
        k(   16) = (   0.0625000   0.5412659   0.0000000), wk =   0.0937500
        k(   17) = (   0.1250000   0.2165064   0.0000000), wk =   0.0468750
        k(   18) = (   0.1250000   0.2886751   0.0000000), wk =   0.0937500
        k(   19) = (   0.1250000   0.3608439   0.0000000), wk =   0.0937500
        k(   20) = (   0.1250000   0.4330127   0.0000000), wk =   0.0937500
        k(   21) = (   0.1250000   0.5051815   0.0000000), wk =   0.0937500
        k(   22) = (   0.1250000   0.5773503   0.0000000), wk =   0.0468750
        k(   23) = (   0.1875000   0.3247595   0.0000000), wk =   0.0468750
        k(   24) = (   0.1875000   0.3969283   0.0000000), wk =   0.0937500
        k(   25) = (   0.1875000   0.4690971   0.0000000), wk =   0.0937500
        k(   26) = (   0.1875000   0.5412659   0.0000000), wk =   0.0937500
        k(   27) = (   0.2500000   0.4330127   0.0000000), wk =   0.0468750
        k(   28) = (   0.2500000   0.5051815   0.0000000), wk =   0.0937500
        k(   29) = (   0.2500000   0.5773503   0.0000000), wk =   0.0468750
        k(   30) = (   0.3125000   0.5412659   0.0000000), wk =   0.0468750

     Dense  grid:   858263 G-vectors     FFT dimensions: (  50,  50, 768)

     Smooth grid:   304337 G-vectors     FFT dimensions: (  36,  36, 540)

     Estimated max dynamical RAM per process >     350.14 MB

     Estimated total dynamical RAM >       4.10 GB

     Initial potential from superposition of free atoms

     starting charge      91.9986, renormalised to      92.0000

     negative rho (up, down):  1.902E-04 0.000E+00


     %%%%%%%%%%%%%%%%%%%%%%%%%%%%%%%%%%%%%%%%%%%%%%%%%%%%%%%%%%%%%%%%%%%%%%%%
     %                                                                      %
     % You are using vdW-DF, which was implemented by the Thonhauser group. %
     % Please cite the following two papers that made this development      %
     % possible and the two reviews that describe the various versions:     %
     %                                                                      %
     %   T. Thonhauser et al., PRL 115, 136402 (2015).                      %
     %   T. Thonhauser et al., PRB 76, 125112 (2007).                       %
     %   K. Berland et al., Rep. Prog. Phys. 78, 066501 (2015).             %
     %   D.C. Langreth et al., J. Phys.: Condens. Matter 21, 084203 (2009). %
     %                                                                      %
     % If you are calculating stress with vdW-DF, please also cite:         %
     %                                                                      %
     %   R. Sabatini et al., J. Phys.: Condens. Matter 24, 424209 (2012).   %
     %                                                                      %
     %%%%%%%%%%%%%%%%%%%%%%%%%%%%%%%%%%%%%%%%%%%%%%%%%%%%%%%%%%%%%%%%%%%%%%%%

     %%%%%%%%%%%%%%%%%%%%%%%%%%%%%%%%%%%%%%%%%%%%%%%%%%%%%%%%%%%%%%%%%%%%%%%%
     %                                                                      %
     %  vdW-DF NEWS:                                                        %
     %                                                                      %
     %  * vdW-DF3 is now available. DOI: 10.1021/acs.jctc.0c00471           %
     %    use with input_dft = 'vdW-DF3-opt1' or 'vdW-DF3-opt2'             %
     %                                                                      %
     %  * Unscreened and range-separated hybrid vdW-DF-cx functionals       %
     %    DOI: 10.1063/1.4986522 and 10.1088/1361-648X/ac2ad2               %
     %    use with input_dft = 'vdW-DF-cx0'    and 'vdW-DF-ahcx'            %
     %  * Unscreened and range-separated hybrid vdW-DF2-b86r functionals    %
     %    DOI: 10.1063/1.4986522 and DOI: 10.1103/PhysRevX.12.041003        %
     %    use with input_dft = 'vdW-DF2-br0' and 'vdW-DF2-ahbr'             %
     %                                                                      %
     %%%%%%%%%%%%%%%%%%%%%%%%%%%%%%%%%%%%%%%%%%%%%%%%%%%%%%%%%%%%%%%%%%%%%%%%


     Starting wfcs are   62 randomized atomic wfcs
     Checking if some PAW data can be deallocated... 

     total cpu time spent up to now is       27.9 secs

     per-process dynamical memory:   142.9 Mb

     Self-consistent Calculation

     iteration #  1     ecut=    80.00 Ry     beta= 0.10
     Davidson diagonalization with overlap
     ethr =  1.00E-02,  avg # of iterations =  3.9

     Threshold (ethr) on eigenvalues was too large:
     Diagonalizing with lowered threshold

     Davidson diagonalization with overlap
     ethr =  1.04E-04,  avg # of iterations =  6.0

     negative rho (up, down):  9.642E-05 0.000E+00

     total cpu time spent up to now is      133.1 secs

     total energy              =   -3114.00679594 Ry
     estimated scf accuracy    <       0.12324512 Ry

     iteration #  2     ecut=    80.00 Ry     beta= 0.10
     Davidson diagonalization with overlap
     ethr =  1.34E-04,  avg # of iterations =  1.0

     negative rho (up, down):  7.732E-05 0.000E+00

     total cpu time spent up to now is      170.3 secs

     total energy              =   -3113.95969987 Ry
     estimated scf accuracy    <       0.10981278 Ry

     iteration #  3     ecut=    80.00 Ry     beta= 0.10
     Davidson diagonalization with overlap
     ethr =  1.19E-04,  avg # of iterations =  3.6

     negative rho (up, down):  2.929E-05 0.000E+00

     total cpu time spent up to now is      220.6 secs

     total energy              =   -3113.97678459 Ry
     estimated scf accuracy    <       0.01442223 Ry

     iteration #  4     ecut=    80.00 Ry     beta= 0.10
     Davidson diagonalization with overlap
     ethr =  1.57E-05,  avg # of iterations =  3.5

     negative rho (up, down):  2.069E-06 0.000E+00

     total cpu time spent up to now is      269.3 secs

     total energy              =   -3113.97531158 Ry
     estimated scf accuracy    <       0.01230742 Ry

     iteration #  5     ecut=    80.00 Ry     beta= 0.10
     Davidson diagonalization with overlap
     ethr =  1.34E-05,  avg # of iterations =  2.4

     negative rho (up, down):  1.342E-06 0.000E+00

     total cpu time spent up to now is      315.0 secs

     total energy              =   -3113.97595146 Ry
     estimated scf accuracy    <       0.00269749 Ry

     iteration #  6     ecut=    80.00 Ry     beta= 0.10
     Davidson diagonalization with overlap
     c_bands:  1 eigenvalues not converged
     ethr =  2.93E-06,  avg # of iterations =  4.2

     negative rho (up, down):  5.520E-07 0.000E+00

     total cpu time spent up to now is      358.7 secs

     total energy              =   -3113.97530921 Ry
     estimated scf accuracy    <       0.00227892 Ry

     iteration #  7     ecut=    80.00 Ry     beta= 0.10
     Davidson diagonalization with overlap
     ethr =  2.48E-06,  avg # of iterations =  7.4

     negative rho (up, down):  4.555E-07 0.000E+00

     total cpu time spent up to now is      407.8 secs

     total energy              =   -3113.97543693 Ry
     estimated scf accuracy    <       0.00139191 Ry

     iteration #  8     ecut=    80.00 Ry     beta= 0.10
     Davidson diagonalization with overlap
     ethr =  1.51E-06,  avg # of iterations =  1.0

     negative rho (up, down):  4.450E-07 0.000E+00

     total cpu time spent up to now is      444.6 secs

     total energy              =   -3113.97529047 Ry
     estimated scf accuracy    <       0.00100011 Ry

     iteration #  9     ecut=    80.00 Ry     beta= 0.10
     Davidson diagonalization with overlap
     ethr =  1.09E-06,  avg # of iterations =  4.0

     negative rho (up, down):  4.749E-07 0.000E+00

     total cpu time spent up to now is      494.9 secs

     total energy              =   -3113.97538773 Ry
     estimated scf accuracy    <       0.00062866 Ry

     iteration # 10     ecut=    80.00 Ry     beta= 0.10
     Davidson diagonalization with overlap
     ethr =  6.83E-07,  avg # of iterations =  1.0

     negative rho (up, down):  4.492E-07 0.000E+00

     total cpu time spent up to now is      534.4 secs

     total energy              =   -3113.97539308 Ry
     estimated scf accuracy    <       0.00063866 Ry

     iteration # 11     ecut=    80.00 Ry     beta= 0.10
     Davidson diagonalization with overlap
     ethr =  6.83E-07,  avg # of iterations =  1.0

     negative rho (up, down):  3.288E-07 0.000E+00

     total cpu time spent up to now is      574.4 secs

     total energy              =   -3113.97538093 Ry
     estimated scf accuracy    <       0.00062930 Ry

     iteration # 12     ecut=    80.00 Ry     beta= 0.10
     Davidson diagonalization with overlap
     ethr =  6.83E-07,  avg # of iterations =  2.7

     negative rho (up, down):  2.430E-04 0.000E+00

     total cpu time spent up to now is      619.1 secs

     total energy              =   -3113.97535935 Ry
     estimated scf accuracy    <       0.00054011 Ry

     iteration # 13     ecut=    80.00 Ry     beta= 0.10
     Davidson diagonalization with overlap
     ethr =  5.87E-07,  avg # of iterations =  3.2

     negative rho (up, down):  2.247E-04 0.000E+00

     total cpu time spent up to now is      666.4 secs

     total energy              =   -3113.97535622 Ry
     estimated scf accuracy    <       0.00098668 Ry

     iteration # 14     ecut=    80.00 Ry     beta= 0.10
     Davidson diagonalization with overlap
     ethr =  5.87E-07,  avg # of iterations =  3.0

     negative rho (up, down):  1.550E-03 0.000E+00

     total cpu time spent up to now is      708.1 secs

     total energy              =   -3113.97536292 Ry
     estimated scf accuracy    <       0.00056427 Ry

     iteration # 15     ecut=    80.00 Ry     beta= 0.10
     Davidson diagonalization with overlap
     ethr =  5.87E-07,  avg # of iterations =  3.1

     negative rho (up, down):  1.327E-03 0.000E+00

     total cpu time spent up to now is      748.9 secs

     total energy              =   -3113.97529505 Ry
     estimated scf accuracy    <       0.00096979 Ry

     iteration # 16     ecut=    80.00 Ry     beta= 0.10
     Davidson diagonalization with overlap
     ethr =  5.87E-07,  avg # of iterations =  3.2

     negative rho (up, down):  1.550E-03 0.000E+00

     total cpu time spent up to now is      793.7 secs

     total energy              =   -3113.97529284 Ry
     estimated scf accuracy    <       0.00027179 Ry

     iteration # 17     ecut=    80.00 Ry     beta= 0.10
     Davidson diagonalization with overlap
     ethr =  2.95E-07,  avg # of iterations =  1.4

     negative rho (up, down):  1.419E-03 0.000E+00

     total cpu time spent up to now is      833.9 secs

     total energy              =   -3113.97529302 Ry
     estimated scf accuracy    <       0.00019804 Ry

     iteration # 18     ecut=    80.00 Ry     beta= 0.10
     Davidson diagonalization with overlap
     ethr =  2.15E-07,  avg # of iterations =  3.2

     negative rho (up, down):  3.022E-03 0.000E+00

     total cpu time spent up to now is      878.4 secs

     total energy              =   -3113.97524613 Ry
     estimated scf accuracy    <       0.00025883 Ry

     iteration # 19     ecut=    80.00 Ry     beta= 0.10
     Davidson diagonalization with overlap
     ethr =  2.15E-07,  avg # of iterations =  5.1

     negative rho (up, down):  3.846E-03 0.000E+00

     total cpu time spent up to now is      921.7 secs

     total energy              =   -3113.97522939 Ry
     estimated scf accuracy    <       0.00021571 Ry

     iteration # 20     ecut=    80.00 Ry     beta= 0.10
     Davidson diagonalization with overlap
     ethr =  2.15E-07,  avg # of iterations =  1.4

     negative rho (up, down):  4.660E-03 0.000E+00

     total cpu time spent up to now is      962.7 secs

     total energy              =   -3113.97521048 Ry
     estimated scf accuracy    <       0.00024683 Ry

     iteration # 21     ecut=    80.00 Ry     beta= 0.10
     Davidson diagonalization with overlap
     ethr =  2.15E-07,  avg # of iterations =  3.9

     negative rho (up, down):  4.671E-03 0.000E+00

     total cpu time spent up to now is     1006.4 secs

     total energy              =   -3113.97522522 Ry
     estimated scf accuracy    <       0.00018729 Ry

     iteration # 22     ecut=    80.00 Ry     beta= 0.10
     Davidson diagonalization with overlap
     ethr =  2.04E-07,  avg # of iterations =  1.4

     negative rho (up, down):  3.373E-03 0.000E+00

     total cpu time spent up to now is     1048.1 secs

     total energy              =   -3113.97521042 Ry
     estimated scf accuracy    <       0.00012518 Ry

     iteration # 23     ecut=    80.00 Ry     beta= 0.10
     Davidson diagonalization with overlap
     ethr =  1.36E-07,  avg # of iterations =  4.0

     negative rho (up, down):  3.314E-03 0.000E+00

     total cpu time spent up to now is     1097.5 secs

     total energy              =   -3113.97521796 Ry
     estimated scf accuracy    <       0.00004832 Ry

     iteration # 24     ecut=    80.00 Ry     beta= 0.10
     Davidson diagonalization with overlap
     ethr =  5.25E-08,  avg # of iterations =  2.6

     negative rho (up, down):  1.887E-03 0.000E+00

     total cpu time spent up to now is     1139.7 secs

     total energy              =   -3113.97523054 Ry
     estimated scf accuracy    <       0.00003294 Ry

     iteration # 25     ecut=    80.00 Ry     beta= 0.10
     Davidson diagonalization with overlap
     ethr =  3.58E-08,  avg # of iterations =  5.7

     negative rho (up, down):  1.959E-03 0.000E+00

     total cpu time spent up to now is     1187.4 secs

     total energy              =   -3113.97522140 Ry
     estimated scf accuracy    <       0.00001601 Ry

     iteration # 26     ecut=    80.00 Ry     beta= 0.10
     Davidson diagonalization with overlap
     ethr =  1.74E-08,  avg # of iterations =  3.9

     negative rho (up, down):  1.972E-03 0.000E+00

     total cpu time spent up to now is     1231.2 secs

     total energy              =   -3113.97521764 Ry
     estimated scf accuracy    <       0.00000651 Ry

     iteration # 27     ecut=    80.00 Ry     beta= 0.10
     Davidson diagonalization with overlap
     ethr =  7.07E-09,  avg # of iterations =  1.7

     negative rho (up, down):  1.123E-03 0.000E+00

     total cpu time spent up to now is     1275.6 secs

     total energy              =   -3113.97523216 Ry
     estimated scf accuracy    <       0.00000455 Ry

     iteration # 28     ecut=    80.00 Ry     beta= 0.10
     Davidson diagonalization with overlap
     ethr =  4.94E-09,  avg # of iterations =  3.8

     negative rho (up, down):  8.328E-04 0.000E+00

     total cpu time spent up to now is     1324.7 secs

     total energy              =   -3113.97523120 Ry
     estimated scf accuracy    <       0.00000183 Ry

     iteration # 29     ecut=    80.00 Ry     beta= 0.10
     Davidson diagonalization with overlap
     ethr =  1.98E-09,  avg # of iterations =  2.0

     negative rho (up, down):  7.158E-04 0.000E+00

     total cpu time spent up to now is     1373.2 secs

     total energy              =   -3113.97523354 Ry
     estimated scf accuracy    <       0.00000138 Ry

     iteration # 30     ecut=    80.00 Ry     beta= 0.10
     Davidson diagonalization with overlap
     ethr =  1.50E-09,  avg # of iterations =  2.8

     negative rho (up, down):  2.464E-04 0.000E+00

     total cpu time spent up to now is     1417.7 secs

     total energy              =   -3113.97523396 Ry
     estimated scf accuracy    <       0.00000074 Ry

     iteration # 31     ecut=    80.00 Ry     beta= 0.10
     Davidson diagonalization with overlap
     ethr =  8.00E-10,  avg # of iterations =  3.2

     negative rho (up, down):  2.061E-04 0.000E+00

     total cpu time spent up to now is     1468.0 secs

     total energy              =   -3113.97523349 Ry
     estimated scf accuracy    <       0.00000030 Ry

     iteration # 32     ecut=    80.00 Ry     beta= 0.10
     Davidson diagonalization with overlap
     ethr =  3.30E-10,  avg # of iterations =  2.3

     negative rho (up, down):  1.888E-04 0.000E+00

     total cpu time spent up to now is     1516.3 secs

     End of self-consistent calculation

          k = 0.0000 0.0000 0.0000 ( 38015 PWs)   bands (ev):

   -74.8857 -74.8750 -48.1733 -48.1733 -48.1662 -48.1662 -48.1601 -48.1601
   -48.1474 -48.1474 -48.1466 -48.1466 -48.1367 -48.1367 -48.1352 -48.1345
   -48.1345 -48.1254 -48.1200 -48.1149 -48.1149 -48.1005 -39.0796 -39.0750
   -39.0443 -39.0443 -39.0292 -39.0292 -15.5942 -15.4759 -14.5473 -14.3750
    -7.2676  -6.7730  -3.8572  -3.3668  -3.3668  -3.3450  -3.3450  -2.8111
    -1.5014  -0.8792  -0.6983  -0.6983  -0.6836  -0.6836   0.1604   0.1604
     0.2201   0.2201   3.3474   3.3474   3.4236   3.4367   3.4367

          k = 0.0000 0.0722 0.0000 ( 37975 PWs)   bands (ev):

   -74.8853 -74.8746 -48.1732 -48.1731 -48.1662 -48.1661 -48.1601 -48.1599
   -48.1475 -48.1474 -48.1466 -48.1464 -48.1368 -48.1367 -48.1351 -48.1345
   -48.1345 -48.1253 -48.1199 -48.1150 -48.1149 -48.1004 -39.0778 -39.0732
   -39.0533 -39.0464 -39.0383 -39.0313 -15.5333 -15.4149 -14.5175 -14.3481
    -7.1861  -6.6919  -4.1327  -3.6778  -3.3327  -3.3103  -3.1447  -2.5864
    -1.5332  -1.1913  -0.9991  -0.9339  -0.9112  -0.8257   0.1772   0.2595
     0.3663   0.4219   3.0260   3.1078   3.2991   3.4019   3.5682

          k = 0.0000 0.1443 0.0000 ( 37895 PWs)   bands (ev):

   -74.8842 -74.8734 -48.1732 -48.1725 -48.1662 -48.1655 -48.1600 -48.1594
   -48.1477 -48.1475 -48.1465 -48.1458 -48.1370 -48.1368 -48.1348 -48.1347
   -48.1345 -48.1250 -48.1196 -48.1152 -48.1150 -48.1002 -39.0792 -39.0725
   -39.0682 -39.0639 -39.0524 -39.0374 -15.3544 -15.2362 -14.4305 -14.2694
    -6.9488  -6.4574  -4.5690  -4.1742  -3.2516  -3.2271  -2.9363  -2.4616
    -2.0651  -2.0036  -1.3242  -1.3193  -1.2919  -0.9366   0.1374   0.3826
     0.6682   0.7309   2.4910   2.5875   3.2113   3.3376   3.8621

          k = 0.0000 0.2165 0.0000 ( 37851 PWs)   bands (ev):

   -74.8825 -74.8717 -48.1732 -48.1718 -48.1662 -48.1647 -48.1600 -48.1586
   -48.1480 -48.1476 -48.1465 -48.1451 -48.1373 -48.1369 -48.1350 -48.1346
   -48.1344 -48.1246 -48.1192 -48.1155 -48.1151 -48.0998 -39.1175 -39.1024
   -39.0648 -39.0615 -39.0603 -39.0464 -15.0711 -14.9539 -14.2927 -14.1454
    -6.5839  -6.1048  -4.9757  -4.6349  -3.3411  -3.2943  -3.1925  -3.1634
    -2.6512  -2.2383  -1.6221  -1.5813  -1.4257  -1.1814   0.1319   0.4691
     0.8658   0.9406   2.1339   2.4463   3.1744   3.3220   4.2581

          k = 0.0000 0.2887 0.0000 ( 37919 PWs)   bands (ev):

   -74.8805 -74.8697 -48.1733 -48.1709 -48.1662 -48.1639 -48.1601 -48.1578
   -48.1483 -48.1477 -48.1466 -48.1442 -48.1376 -48.1370 -48.1354 -48.1347
   -48.1340 -48.1242 -48.1188 -48.1158 -48.1152 -48.0994 -39.1625 -39.1473
   -39.0721 -39.0570 -39.0557 -39.0512 -14.7093 -14.5954 -14.1131 -13.9846
    -6.1804  -5.7626  -5.2583  -4.9594  -4.3952  -4.3398  -3.2429  -3.2076
    -2.7959  -2.4664  -1.7273  -1.6960  -1.6746  -1.5564   0.2475   0.6309
     0.9716   1.0483   2.2105   2.7354   3.2079   3.3783   4.7445

          k = 0.0000 0.3608 0.0000 ( 37933 PWs)   bands (ev):

   -74.8785 -74.8677 -48.1733 -48.1701 -48.1662 -48.1630 -48.1601 -48.1569
   -48.1487 -48.1478 -48.1466 -48.1433 -48.1379 -48.1371 -48.1357 -48.1348
   -48.1335 -48.1237 -48.1184 -48.1161 -48.1153 -48.0989 -39.2070 -39.1919
   -39.0827 -39.0676 -39.0465 -39.0421 -14.3209 -14.2156 -13.8951 -13.7886
    -6.0483  -5.8855  -5.4554  -5.2902  -5.0622  -4.7414  -3.3955  -3.3554
    -3.1047  -2.8581  -2.0046  -1.8653  -1.6795  -1.6072   0.5731   0.9447
     1.0757   1.1379   2.6091   3.2159   3.2677   3.4640   4.7982

          k = 0.0000 0.4330 0.0000 ( 37998 PWs)   bands (ev):

   -74.8768 -74.8660 -48.1733 -48.1693 -48.1663 -48.1623 -48.1602 -48.1562
   -48.1490 -48.1479 -48.1466 -48.1426 -48.1382 -48.1371 -48.1360 -48.1349
   -48.1332 -48.1234 -48.1180 -48.1164 -48.1154 -48.0986 -39.2445 -39.2293
   -39.0917 -39.0766 -39.0388 -39.0343 -14.0040 -13.9186 -13.6231 -13.5365
    -6.5813  -6.5066  -5.7835  -5.5236  -4.8279  -4.6069  -3.5621  -3.5191
    -3.4064  -3.1316  -2.1887  -2.0655  -1.5990  -1.5034   1.0515   1.2311
     1.2691   1.3656   3.0976   3.3162   3.5212   3.5362   4.4301

          k = 0.0000 0.5052 0.0000 ( 38048 PWs)   bands (ev):

   -74.8756 -74.8649 -48.1734 -48.1689 -48.1663 -48.1618 -48.1602 -48.1557
   -48.1492 -48.1479 -48.1466 -48.1421 -48.1384 -48.1372 -48.1362 -48.1350
   -48.1329 -48.1231 -48.1178 -48.1166 -48.1155 -48.0983 -39.2695 -39.2542
   -39.0977 -39.0826 -39.0336 -39.0291 -13.8261 -13.7659 -13.3474 -13.2808
    -7.1398  -7.0738  -5.7693  -5.5706  -4.8738  -4.7088  -3.6798  -3.6353
    -3.3708  -3.0560  -2.2935  -2.2042  -1.5490  -1.4356   1.3928   1.4134
     1.5550   1.7772   3.2397   3.3428   3.5794   3.5829   4.3497

          k = 0.0000-0.5774 0.0000 ( 38024 PWs)   bands (ev):

   -74.8752 -74.8645 -48.1734 -48.1687 -48.1663 -48.1616 -48.1602 -48.1556
   -48.1492 -48.1480 -48.1466 -48.1419 -48.1385 -48.1372 -48.1362 -48.1350
   -48.1328 -48.1230 -48.1177 -48.1167 -48.1155 -48.0982 -39.2782 -39.2630
   -39.0998 -39.0847 -39.0317 -39.0273 -13.7689 -13.7210 -13.2273 -13.1738
    -7.3469  -7.2927  -5.6885  -5.5948  -4.9861  -4.8196  -3.7215  -3.6765
    -3.2454  -2.9668  -2.3420  -2.2623  -1.5340  -1.4142   1.4619   1.4804
     1.8139   1.9443   3.3031   3.3508   3.5490   3.5933   4.0504

          k = 0.0625 0.1083 0.0000 ( 37895 PWs)   bands (ev):

   -74.8845 -74.8738 -48.1732 -48.1727 -48.1662 -48.1657 -48.1600 -48.1595
   -48.1476 -48.1475 -48.1465 -48.1460 -48.1369 -48.1368 -48.1349 -48.1347
   -48.1345 -48.1251 -48.1197 -48.1151 -48.1150 -48.1002 -39.0743 -39.0705
   -39.0698 -39.0554 -39.0507 -39.0357 -15.4133 -15.2950 -14.4591 -14.2953
    -7.0264  -6.5336  -4.4498  -4.0379  -3.2823  -3.2600  -2.9696  -2.4308
    -1.8014  -1.7667  -1.3281  -1.3170  -1.2095  -0.8251   0.2200   0.4143
     0.5198   0.5751   2.7317   2.7468   3.1771   3.2605   3.7767

          k = 0.0625 0.1804 0.0000 ( 37885 PWs)   bands (ev):

   -74.8831 -74.8724 -48.1732 -48.1721 -48.1662 -48.1651 -48.1600 -48.1589
   -48.1479 -48.1476 -48.1465 -48.1454 -48.1372 -48.1369 -48.1349 -48.1347
   -48.1345 -48.1248 -48.1194 -48.1154 -48.1151 -48.0999 -39.1019 -39.0868
   -39.0680 -39.0634 -39.0589 -39.0439 -15.1818 -15.0641 -14.3469 -14.1941
    -6.7218  -6.2351  -4.8363  -4.4755  -3.2789  -3.2527  -2.9505  -2.7425
    -2.5312  -2.3469  -1.6889  -1.6336  -1.2553  -0.9085   0.2587   0.4576
     0.6628   0.7233   2.4129   2.5825   3.0164   3.1293   4.1124

          k = 0.0625 0.2526 0.0000 ( 37916 PWs)   bands (ev):

   -74.8813 -74.8705 -48.1732 -48.1713 -48.1662 -48.1643 -48.1600 -48.1582
   -48.1482 -48.1477 -48.1465 -48.1446 -48.1375 -48.1369 -48.1352 -48.1347
   -48.1341 -48.1244 -48.1190 -48.1157 -48.1152 -48.0995 -39.1426 -39.1275
   -39.0699 -39.0592 -39.0561 -39.0535 -14.8575 -14.7418 -14.1890 -14.0526
    -6.3182  -5.8572  -5.1690  -4.8549  -3.9373  -3.8961  -3.2272  -3.1930
    -2.7285  -2.4803  -1.9456  -1.8979  -1.2940  -1.0846   0.1889   0.4228
     0.8444   0.9758   2.3052   2.5937   3.0565   3.1676   4.5550

          k = 0.0625 0.3248 0.0000 ( 37964 PWs)   bands (ev):

   -74.8793 -74.8685 -48.1732 -48.1705 -48.1662 -48.1635 -48.1600 -48.1573
   -48.1485 -48.1478 -48.1465 -48.1438 -48.1378 -48.1370 -48.1355 -48.1348
   -48.1337 -48.1239 -48.1185 -48.1160 -48.1153 -48.0991 -39.1863 -39.1711
   -39.0815 -39.0665 -39.0502 -39.0457 -14.4761 -14.3657 -13.9940 -13.8786
    -5.9901  -5.6716  -5.3208  -5.0872  -4.8808  -4.7331  -3.4613  -3.4245
    -2.8092  -2.6390  -2.2617  -2.2412  -1.3254  -1.2010   0.2722   0.5494
     1.0954   1.2088   2.4314   2.7257   3.2325   3.3874   5.0345

          k = 0.0625 0.3969 0.0000 ( 37981 PWs)   bands (ev):

   -74.8774 -74.8667 -48.1732 -48.1697 -48.1661 -48.1627 -48.1600 -48.1566
   -48.1488 -48.1479 -48.1465 -48.1430 -48.1381 -48.1371 -48.1358 -48.1349
   -48.1333 -48.1235 -48.1181 -48.1163 -48.1154 -48.0987 -39.2263 -39.2111
   -39.0922 -39.0772 -39.0417 -39.0373 -14.1113 -14.0146 -13.7557 -13.6621
    -6.1966  -6.1359  -5.6822  -5.4408  -4.9349  -4.6231  -3.7221  -3.6608
    -3.0510  -2.9286  -2.5020  -2.4557  -1.2971  -1.2323   0.5707   0.8123
     1.3631   1.4649   2.7129   2.8862   3.4254   3.6814   4.7185

          k = 0.0625 0.4691 0.0000 ( 38057 PWs)   bands (ev):

   -74.8760 -74.8652 -48.1732 -48.1691 -48.1661 -48.1621 -48.1601 -48.1560
   -48.1491 -48.1479 -48.1465 -48.1424 -48.1383 -48.1372 -48.1361 -48.1350
   -48.1330 -48.1232 -48.1178 -48.1165 -48.1155 -48.0984 -39.2568 -39.2416
   -39.1004 -39.0853 -39.0353 -39.0308 -13.8670 -13.7953 -13.4692 -13.3943
    -6.8446  -6.7721  -5.7789  -5.5484  -4.7651  -4.6014  -3.8528  -3.7682
    -3.2370  -3.0679  -2.6016  -2.5562  -1.2827  -1.2656   0.9792   1.1407
     1.6272   1.7342   2.9289   3.0563   3.5063   3.7223   4.5979

          k = 0.0625 0.5413 0.0000 ( 38034 PWs)   bands (ev):

   -74.8752 -74.8645 -48.1732 -48.1688 -48.1661 -48.1618 -48.1601 -48.1557
   -48.1492 -48.1480 -48.1465 -48.1421 -48.1384 -48.1372 -48.1362 -48.1351
   -48.1328 -48.1231 -48.1177 -48.1166 -48.1155 -48.0982 -39.2732 -39.2580
   -39.1049 -39.0898 -39.0318 -39.0273 -13.7541 -13.7036 -13.2549 -13.1994
    -7.2366  -7.1790  -5.7072  -5.5760  -4.9139  -4.7450  -3.8345  -3.8074
    -3.1930  -2.9841  -2.6418  -2.6221  -1.3075  -1.2964   1.3345   1.3965
     1.7874   1.8953   3.0411   3.2371   3.3641   3.6720   4.3546

          k = 0.1250 0.2165 0.0000 ( 37933 PWs)   bands (ev):

   -74.8816 -74.8708 -48.1731 -48.1715 -48.1661 -48.1645 -48.1599 -48.1584
   -48.1481 -48.1477 -48.1464 -48.1448 -48.1374 -48.1369 -48.1351 -48.1347
   -48.1342 -48.1244 -48.1190 -48.1156 -48.1152 -48.0996 -39.1343 -39.1192
   -39.0706 -39.0603 -39.0577 -39.0537 -14.9082 -14.7919 -14.2150 -14.0760
    -6.3668  -5.8933  -5.1254  -4.8047  -3.7665  -3.7318  -3.1066  -2.9222
    -2.8999  -2.8552  -1.9879  -1.8559  -1.1600  -0.8502   0.2548   0.2969
     0.6292   0.9355   2.5905   2.6837   2.7265   2.9592   4.4928

          k = 0.1250 0.2887 0.0000 ( 37936 PWs)   bands (ev):

   -74.8797 -74.8689 -48.1730 -48.1708 -48.1660 -48.1638 -48.1599 -48.1577
   -48.1484 -48.1478 -48.1463 -48.1441 -48.1377 -48.1371 -48.1354 -48.1349
   -48.1338 -48.1240 -48.1186 -48.1159 -48.1153 -48.0992 -39.1716 -39.1564
   -39.0844 -39.0694 -39.0521 -39.0475 -14.5582 -14.4456 -14.0451 -13.9251
    -5.9602  -5.5459  -5.3321  -5.0569  -4.5671  -4.5353  -3.5014  -3.3958
    -3.0082  -2.9537  -2.2457  -2.1795  -1.0408  -0.8060   0.0222   0.2140
     1.0120   1.2654   2.3677   2.4074   3.0219   3.3573   4.9774

          k = 0.1250 0.3608 0.0000 ( 38000 PWs)   bands (ev):

   -74.8778 -74.8671 -48.1729 -48.1701 -48.1659 -48.1631 -48.1598 -48.1570
   -48.1487 -48.1479 -48.1462 -48.1434 -48.1380 -48.1372 -48.1357 -48.1350
   -48.1334 -48.1236 -48.1182 -48.1162 -48.1154 -48.0988 -39.2083 -39.1932
   -39.0985 -39.0834 -39.0437 -39.0392 -14.1803 -14.0760 -13.8433 -13.7462
    -5.8479  -5.7265  -5.4743  -5.3285  -5.0726  -4.7030  -3.8745  -3.7915
    -3.1236  -3.0536  -2.6830  -2.6130  -0.9392  -0.7771   0.0984   0.3587
     1.4161   1.5719   2.2784   2.3543   3.3602   3.7431   5.2643

          k = 0.1250 0.4330 0.0000 ( 38048 PWs)   bands (ev):

   -74.8763 -74.8655 -48.1729 -48.1695 -48.1658 -48.1625 -48.1597 -48.1564
   -48.1489 -48.1480 -48.1462 -48.1428 -48.1382 -48.1373 -48.1360 -48.1351
   -48.1331 -48.1233 -48.1179 -48.1164 -48.1155 -48.0985 -39.2392 -39.2240
   -39.1106 -39.0955 -39.0366 -39.0321 -13.8746 -13.7909 -13.5902 -13.5130
    -6.4095  -6.3411  -5.7271  -5.4946  -4.7185  -4.4727  -4.1331  -4.0088
    -3.2594  -3.1865  -3.0315  -2.9884  -0.9326  -0.8291   0.4501   0.6873
     1.7259   1.8043   2.3461   2.4849   3.6248   3.9090   4.9973

          k = 0.1250 0.5052 0.0000 ( 38027 PWs)   bands (ev):

   -74.8752 -74.8645 -48.1728 -48.1691 -48.1658 -48.1621 -48.1597 -48.1560
   -48.1491 -48.1481 -48.1461 -48.1424 -48.1384 -48.1373 -48.1361 -48.1352
   -48.1328 -48.1231 -48.1177 -48.1166 -48.1156 -48.0982 -39.2597 -39.2445
   -39.1187 -39.1036 -39.0318 -39.0273 -13.7105 -13.6535 -13.3283 -13.2694
    -6.9264  -6.8645  -5.7116  -5.5493  -4.7281  -4.5700  -4.1198  -3.9945
    -3.3589  -3.2705  -3.1511  -3.0724  -1.0105  -0.9265   0.9306   1.0939
     1.8183   1.8670   2.5119   2.6828   3.5346   3.8686   4.8853

          k = 0.1250 0.5774 0.0000 ( 37968 PWs)   bands (ev):

   -74.8748 -74.8641 -48.1728 -48.1690 -48.1657 -48.1619 -48.1597 -48.1558
   -48.1491 -48.1481 -48.1461 -48.1422 -48.1384 -48.1373 -48.1362 -48.1352
   -48.1327 -48.1230 -48.1176 -48.1166 -48.1156 -48.0982 -39.2669 -39.2517
   -39.1215 -39.1064 -39.0301 -39.0257 -13.6579 -13.6137 -13.2154 -13.1694
    -7.1160  -7.0615  -5.6539  -5.5790  -4.8323  -4.6608  -4.0765  -4.0016
    -3.3798  -3.2860  -3.1363  -3.0417  -1.0609  -0.9772   1.2826   1.3165
     1.7127   1.7884   2.6441   2.7832   3.4435   3.7376   4.7722

          k = 0.1875 0.3248 0.0000 ( 37987 PWs)   bands (ev):

   -74.8780 -74.8672 -48.1728 -48.1703 -48.1658 -48.1633 -48.1596 -48.1572
   -48.1486 -48.1479 -48.1461 -48.1436 -48.1379 -48.1372 -48.1357 -48.1350
   -48.1334 -48.1237 -48.1183 -48.1161 -48.1154 -48.0988 -39.2002 -39.1851
   -39.1026 -39.0875 -39.0444 -39.0399 -14.2042 -14.0972 -13.8736 -13.7755
    -5.6957  -5.4550  -5.3817  -5.3198  -5.1207  -4.7735  -3.8864  -3.7809
    -3.4148  -3.3759  -2.5497  -2.5106  -0.7299  -0.5145  -0.1448   0.1034
     1.4072   1.6100   2.0924   2.1391   3.3488   3.7550   5.4755

          k = 0.1875 0.3969 0.0000 ( 38014 PWs)   bands (ev):

   -74.8764 -74.8657 -48.1726 -48.1699 -48.1655 -48.1629 -48.1594 -48.1568
   -48.1488 -48.1481 -48.1458 -48.1432 -48.1381 -48.1373 -48.1359 -48.1352
   -48.1331 -48.1234 -48.1179 -48.1163 -48.1156 -48.0985 -39.2249 -39.2097
   -39.1210 -39.1059 -39.0373 -39.0328 -13.8589 -13.7630 -13.6758 -13.6045
    -5.9839  -5.9362  -5.6761  -5.4538  -4.8171  -4.4562  -4.2275  -4.1169
    -3.7686  -3.7106  -2.9769  -2.8874  -0.5423  -0.3844  -0.0099   0.2331
     1.7348   1.8477   2.0144   2.0917   3.6829   4.0262   5.4213

          k = 0.1875 0.4691 0.0000 ( 38010 PWs)   bands (ev):

   -74.8752 -74.8645 -48.1724 -48.1696 -48.1653 -48.1625 -48.1592 -48.1564
   -48.1490 -48.1482 -48.1456 -48.1428 -48.1383 -48.1374 -48.1360 -48.1353
   -48.1328 -48.1231 -48.1177 -48.1165 -48.1157 -48.0983 -39.2429 -39.2277
   -39.1359 -39.1208 -39.0318 -39.0274 -13.6428 -13.5764 -13.4242 -13.3665
    -6.4996  -6.4469  -5.6858  -5.5263  -4.5779  -4.4253  -4.3188  -4.1349
    -4.0290  -3.9339  -3.2506  -3.1943  -0.6088  -0.4806   0.4380   0.6081
     1.8253   1.8739   2.1196   2.2983   3.7821   4.0259   5.2745

          k = 0.1875 0.5413 0.0000 ( 38010 PWs)   bands (ev):

   -74.8746 -74.8638 -48.1723 -48.1694 -48.1652 -48.1623 -48.1591 -48.1563
   -48.1491 -48.1482 -48.1455 -48.1427 -48.1383 -48.1375 -48.1361 -48.1353
   -48.1327 -48.1230 -48.1176 -48.1165 -48.1158 -48.0981 -39.2523 -39.2371
   -39.1443 -39.1291 -39.0289 -39.0244 -13.5483 -13.5057 -13.2355 -13.1946
    -6.8002  -6.7455  -5.6512  -5.5719  -4.6850  -4.5174  -4.2583  -4.1783
    -4.0868  -4.0054  -3.2862  -3.2610  -0.7120  -0.5859   0.9395   1.0255
     1.6013   1.6390   2.3811   2.5258   3.5533   3.8696   5.1792

          k = 0.2500 0.4330 0.0000 ( 38031 PWs)   bands (ev):

   -74.8752 -74.8645 -48.1721 -48.1698 -48.1650 -48.1627 -48.1590 -48.1567
   -48.1489 -48.1482 -48.1454 -48.1431 -48.1382 -48.1375 -48.1360 -48.1353
   -48.1328 -48.1231 -48.1177 -48.1164 -48.1158 -48.0983 -39.2340 -39.2188
   -39.1449 -39.1298 -39.0318 -39.0274 -13.5843 -13.5062 -13.4844 -13.4545
    -6.2298  -6.2125  -5.6724  -5.5260  -4.6231  -4.4263  -4.4150  -4.3118
    -4.2376  -4.0344  -3.3686  -3.2310  -0.2159  -0.0510   0.0105   0.1506
     1.7812   1.8755   2.0134   2.1879   3.9162   4.0788   5.2713

          k = 0.2500 0.5052 0.0000 ( 38019 PWs)   bands (ev):

   -74.8744 -74.8637 -48.1718 -48.1698 -48.1647 -48.1628 -48.1586 -48.1567
   -48.1490 -48.1483 -48.1450 -48.1431 -48.1382 -48.1376 -48.1361 -48.1354
   -48.1327 -48.1230 -48.1175 -48.1165 -48.1159 -48.0981 -39.2362 -39.2210
   -39.1647 -39.1496 -39.0282 -39.0237 -13.4454 -13.3995 -13.2958 -13.2596
    -6.4118  -6.3736  -5.6602  -5.5853  -4.8697  -4.8155  -4.5003  -4.3442
    -4.1199  -3.9818  -3.6056  -3.4909  -0.2484  -0.1053   0.3890   0.4930
     1.5548   1.5627   2.2488   2.5673   3.7222   3.9465   5.0320

          k = 0.2500 0.5774 0.0000 ( 38023 PWs)   bands (ev):

   -74.8741 -74.8634 -48.1716 -48.1699 -48.1645 -48.1628 -48.1584 -48.1567
   -48.1490 -48.1484 -48.1448 -48.1431 -48.1383 -48.1376 -48.1361 -48.1355
   -48.1326 -48.1229 -48.1175 -48.1165 -48.1159 -48.0980 -39.2358 -39.2206
   -39.1729 -39.1577 -39.0269 -39.0225 -13.3997 -13.3697 -13.2127 -13.1870
    -6.4779  -6.4230  -5.6502  -5.6086  -5.0249  -4.9830  -4.4151  -4.2426
    -4.2036  -4.1005  -3.6063  -3.5234  -0.3017  -0.1626   0.7320   0.8482
     1.2106   1.2402   2.5675   2.7162   3.5659   3.7073   4.9256

          k = 0.3125 0.5413 0.0000 ( 38095 PWs)   bands (ev):

   -74.8740 -74.8632 -48.1712 -48.1702 -48.1641 -48.1632 -48.1581 -48.1570
   -48.1490 -48.1485 -48.1445 -48.1435 -48.1382 -48.1377 -48.1361 -48.1355
   -48.1326 -48.1229 -48.1175 -48.1164 -48.1160 -48.0980 -39.2209 -39.2057
   -39.1921 -39.1769 -39.0262 -39.0218 -13.3112 -13.2874 -13.2409 -13.2204
    -6.1650  -6.1214  -5.6711  -5.6409  -5.4600  -5.4117  -4.3934  -4.1992
    -4.0033  -3.9577  -3.9130  -3.7568   0.1072   0.2666   0.3475   0.4873
     1.0680   1.0866   2.6936   3.0309   3.3613   3.6552   4.8401

     the Fermi energy is    -0.0249 ev

!    total energy              =   -3113.97523319 Ry
     total all-electron energy =    -83998.699797 Ry
     estimated scf accuracy    <       0.00000003 Ry
     smearing contrib. (-TS)   =       0.00067658 Ry
     internal energy E=F+TS    =   -3113.97590978 Ry

     The total energy is F=E-TS. E is the sum of the following terms:
     one-electron contribution =  -29043.31201298 Ry
     hartree contribution      =   14508.78535110 Ry
     xc contribution           =    -193.61080002 Ry
     ewald contribution        =   13375.47580925 Ry
     one-center paw contrib.   =   -1761.31425712 Ry

     convergence has been achieved in  32 iterations

     Writing all to output data dir ./tmp/cleave_000/wse2_cleave_000.save/ :
     XML data file, charge density, pseudopotentials, collected wavefunctions

     init_run     :     27.41s CPU     27.77s WALL (       1 calls)
     electrons    :   1468.95s CPU   1488.40s WALL (       1 calls)

     Called by init_run:
     wfcinit      :     14.98s CPU     15.04s WALL (       1 calls)
     potinit      :     11.33s CPU     11.43s WALL (       1 calls)
     hinit0       :      0.09s CPU      0.09s WALL (       1 calls)

     Called by electrons:
     c_bands      :   1236.51s CPU   1243.38s WALL (      33 calls)
     sum_band     :    166.38s CPU    172.40s WALL (      33 calls)
     v_of_rho     :     37.26s CPU     38.85s WALL (      33 calls)
     newd         :     22.47s CPU     27.56s WALL (      33 calls)
     PAW_pot      :      3.19s CPU      3.22s WALL (      33 calls)
     mix_rho      :     14.71s CPU     14.83s WALL (      33 calls)
     vdW_kernel   :     10.38s CPU     10.38s WALL (       1 calls)

     Called by c_bands:
     init_us_2    :      7.57s CPU      7.59s WALL (    2010 calls)
     cegterg      :   1215.95s CPU   1222.49s WALL (     990 calls)

     Called by *egterg:
     cdiaghg      :     14.80s CPU     14.82s WALL (    4039 calls)
     h_psi        :    550.24s CPU    552.67s WALL (    4099 calls)
     s_psi        :    155.72s CPU    155.82s WALL (    4099 calls)
     g_psi        :      1.72s CPU      1.72s WALL (    3079 calls)

     Called by h_psi:
     h_psi:calbec :    186.01s CPU    187.00s WALL (    4099 calls)
     vloc_psi     :    182.81s CPU    184.09s WALL (    4099 calls)
                                        0.00s GPU  (    4099 calls)
     add_vuspsi   :    179.06s CPU    179.20s WALL (    4099 calls)

     General routines
     calbec       :    269.85s CPU    271.24s WALL (    5089 calls)
     fft          :     15.96s CPU     16.10s WALL (    2078 calls)
     ffts         :      5.51s CPU      5.58s WALL (    3879 calls)
     fftw         :    194.80s CPU    196.20s WALL (  292682 calls)
     interpolate  :      0.32s CPU      0.32s WALL (      33 calls)

     Parallel routines

     PWSCF        :  24m57.13s CPU  25m17.31s WALL


   This run was terminated on:  13: 4:54  18Jun2026            

=------------------------------------------------------------------------------=
   JOB DONE.
=------------------------------------------------------------------------------=
Note: The following floating-point exceptions are signalling: IEEE_UNDERFLOW_FLAG IEEE_DENORMAL
Note: The following floating-point exceptions are signalling: IEEE_UNDERFLOW_FLAG IEEE_DENORMAL
Note: The following floating-point exceptions are signalling: IEEE_UNDERFLOW_FLAG IEEE_DENORMAL
Note: The following floating-point exceptions are signalling: IEEE_UNDERFLOW_FLAG IEEE_DENORMAL
Note: The following floating-point exceptions are signalling: IEEE_UNDERFLOW_FLAG IEEE_DENORMAL
Note: The following floating-point exceptions are signalling: IEEE_UNDERFLOW_FLAG IEEE_DENORMAL
Note: The following floating-point exceptions are signalling: IEEE_UNDERFLOW_FLAG IEEE_DENORMAL
Note: The following floating-point exceptions are signalling: IEEE_UNDERFLOW_FLAG IEEE_DENORMAL
Note: The following floating-point exceptions are signalling: IEEE_UNDERFLOW_FLAG IEEE_DENORMAL
Note: The following floating-point exceptions are signalling: IEEE_UNDERFLOW_FLAG IEEE_DENORMAL
Note: The following floating-point exceptions are signalling: IEEE_UNDERFLOW_FLAG IEEE_DENORMAL
Note: The following floating-point exceptions are signalling: IEEE_UNDERFLOW_FLAG IEEE_DENORMAL
