
     Program PWSCF v.7.5 starts on 18Jun2026 at 14:18:50 

     This program is part of the open-source Quantum ESPRESSO suite
     for quantum simulation of materials; please cite
         "P. Giannozzi et al., J. Phys.:Condens. Matter 21 395502 (2009);
         "P. Giannozzi et al., J. Phys.:Condens. Matter 29 465901 (2017);
         "P. Giannozzi et al., J. Chem. Phys. 152 154105 (2020);
          URL http://www.quantum-espresso.org", 
     in publications or presentations arising from this work. More details at
     http://www.quantum-espresso.org/quote

     Parallel version (MPI), running on    12 processors

     MPI processes distributed on     1 nodes
     31388 MiB available memory on the printing compute node when the environment starts

     Waiting for input...
     Reading input from standard input

     Current dimensions of program PWSCF are:
     Max number of different atomic species (ntypx) = 10
     Max number of k-points (npk) =  40000
     Max angular momentum in pseudopotentials (lmaxx) =  4
     file W.pbe-spn-kjpaw_psl.1.0.0.UPF: wavefunction(s)  6S 5P 5D renormalized
     file Se.pbe-dn-kjpaw_psl.1.0.0.UPF: wavefunction(s)  4S 4P 3D renormalized

     IMPORTANT: XC functional enforced from input :
     Exchange-correlation= VDW-DF2-B86R
                           (   1   4  26   0   2   0   0)
     Any further DFT definition will be discarded
     Please, verify this is what you really want


     R & G space division:  proc/nbgrp/npool/nimage =      12
     Subspace diagonalization in iterative solution of the eigenvalue problem:
     a serial algorithm will be used


     Parallelization info
     --------------------
     sticks:   dense  smooth     PW     G-vecs:    dense   smooth      PW
     Min         139      70     20                71489    25322    3895
     Max         140      71     22                71558    25395    3945
     Sum        1675     847    253               858263   304337   46813

     Using Slab Decomposition



     bravais-lattice index     =            4
     lattice parameter (alat)  =       6.1983  a.u.
     unit-cell volume          =    3143.7277 (a.u.)^3
     number of atoms/cell      =            6
     number of atomic types    =            2
     number of electrons       =        92.00
     number of Kohn-Sham states=           55
     kinetic-energy cutoff     =      80.0000  Ry
     charge density cutoff     =     640.0000  Ry
     scf convergence threshold =      1.0E-07
     mixing beta               =       0.1000
     number of iterations used =           12  local-TF  mixing
     Exchange-correlation= VDW-DF2-B86R
                           (   1   4  26   0   2   0   0)

     celldm(1)=   6.198302  celldm(2)=   0.000000  celldm(3)=  15.243902
     celldm(4)=   0.000000  celldm(5)=   0.000000  celldm(6)=   0.000000

     crystal axes: (cart. coord. in units of alat)
               a(1) = (   1.000000   0.000000   0.000000 )  
               a(2) = (  -0.500000   0.866025   0.000000 )  
               a(3) = (   0.000000   0.000000  15.243902 )  

     reciprocal axes: (cart. coord. in units 2 pi/alat)
               b(1) = (  1.000000  0.577350 -0.000000 )  
               b(2) = (  0.000000  1.154701  0.000000 )  
               b(3) = (  0.000000 -0.000000  0.065600 )  


     PseudoPot. # 1 for W  read from file:
     ./pseudo/W.pbe-spn-kjpaw_psl.1.0.0.UPF
     MD5 check sum: 03c3df5b60893f488392c7401945500a
     Pseudo is Projector augmented-wave + core cor, Zval = 14.0
     Generated using &quot;atomic&quot; code by A. Dal Corso  v.6.2.2
     Shape of augmentation charge: PSQ
     Using radial grid of 1273 points,  6 beta functions with: 
                l(1) =   0
                l(2) =   0
                l(3) =   1
                l(4) =   1
                l(5) =   2
                l(6) =   2
     Q(r) pseudized with 0 coefficients 


     PseudoPot. # 2 for Se read from file:
     ./pseudo/Se.pbe-dn-kjpaw_psl.1.0.0.UPF
     MD5 check sum: ac240dd2bae32a30e0bf3a38df9c8785
     Pseudo is Projector augmented-wave + core cor, Zval = 16.0
     Generated using &quot;atomic&quot; code by A. Dal Corso  v.6.3
     Shape of augmentation charge: PSQ
     Using radial grid of 1211 points,  6 beta functions with: 
                l(1) =   0
                l(2) =   0
                l(3) =   1
                l(4) =   1
                l(5) =   2
                l(6) =   2
     Q(r) pseudized with 0 coefficients 


     atomic species   valence    mass     pseudopotential
     W                14.00   183.84000     W ( 1.00)
     Se               16.00    78.96000     Se( 1.00)

      6 Sym. Ops. (no inversion) found



   Cartesian axes

     site n.     atom                  positions (alat units)
         1        Se     tau(   1) = (  -0.0000005   0.5773506   6.1149390  )
         2        W      tau(   2) = (   0.0000000   0.0000000   6.6383232  )
         3        Se     tau(   3) = (   0.5000005   0.2886748   7.1618445  )
         4        Se     tau(   4) = (  -0.0000005   0.5773506   8.6304116  )
         5        W      tau(   5) = (   0.5000005   0.2886748   9.1536585  )
         6        Se     tau(   6) = (   0.0000000   0.0000000   9.6777439  )

     number of k points=    30  Methfessel-Paxton smearing, width (Ry)=  0.0200
                       cart. coord. in units 2pi/alat
        k(    1) = (   0.0000000   0.0000000   0.0000000), wk =   0.0078125
        k(    2) = (   0.0000000   0.0721688   0.0000000), wk =   0.0468750
        k(    3) = (   0.0000000   0.1443376   0.0000000), wk =   0.0468750
        k(    4) = (   0.0000000   0.2165064   0.0000000), wk =   0.0468750
        k(    5) = (   0.0000000   0.2886751   0.0000000), wk =   0.0468750
        k(    6) = (   0.0000000   0.3608439   0.0000000), wk =   0.0468750
        k(    7) = (   0.0000000   0.4330127   0.0000000), wk =   0.0468750
        k(    8) = (   0.0000000   0.5051815   0.0000000), wk =   0.0468750
        k(    9) = (   0.0000000  -0.5773503   0.0000000), wk =   0.0234375
        k(   10) = (   0.0625000   0.1082532   0.0000000), wk =   0.0468750
        k(   11) = (   0.0625000   0.1804220   0.0000000), wk =   0.0937500
        k(   12) = (   0.0625000   0.2525907   0.0000000), wk =   0.0937500
        k(   13) = (   0.0625000   0.3247595   0.0000000), wk =   0.0937500
        k(   14) = (   0.0625000   0.3969283   0.0000000), wk =   0.0937500
        k(   15) = (   0.0625000   0.4690971   0.0000000), wk =   0.0937500
        k(   16) = (   0.0625000   0.5412659   0.0000000), wk =   0.0937500
        k(   17) = (   0.1250000   0.2165064   0.0000000), wk =   0.0468750
        k(   18) = (   0.1250000   0.2886751   0.0000000), wk =   0.0937500
        k(   19) = (   0.1250000   0.3608439   0.0000000), wk =   0.0937500
        k(   20) = (   0.1250000   0.4330127   0.0000000), wk =   0.0937500
        k(   21) = (   0.1250000   0.5051815   0.0000000), wk =   0.0937500
        k(   22) = (   0.1250000   0.5773503   0.0000000), wk =   0.0468750
        k(   23) = (   0.1875000   0.3247595   0.0000000), wk =   0.0468750
        k(   24) = (   0.1875000   0.3969283   0.0000000), wk =   0.0937500
        k(   25) = (   0.1875000   0.4690971   0.0000000), wk =   0.0937500
        k(   26) = (   0.1875000   0.5412659   0.0000000), wk =   0.0937500
        k(   27) = (   0.2500000   0.4330127   0.0000000), wk =   0.0468750
        k(   28) = (   0.2500000   0.5051815   0.0000000), wk =   0.0937500
        k(   29) = (   0.2500000   0.5773503   0.0000000), wk =   0.0468750
        k(   30) = (   0.3125000   0.5412659   0.0000000), wk =   0.0468750

     Dense  grid:   858263 G-vectors     FFT dimensions: (  50,  50, 768)

     Smooth grid:   304337 G-vectors     FFT dimensions: (  36,  36, 540)

     Estimated max dynamical RAM per process >     350.14 MB

     Estimated total dynamical RAM >       4.10 GB

     Initial potential from superposition of free atoms

     starting charge      91.9986, renormalised to      92.0000

     negative rho (up, down):  1.733E-04 0.000E+00


     %%%%%%%%%%%%%%%%%%%%%%%%%%%%%%%%%%%%%%%%%%%%%%%%%%%%%%%%%%%%%%%%%%%%%%%%
     %                                                                      %
     % You are using vdW-DF, which was implemented by the Thonhauser group. %
     % Please cite the following two papers that made this development      %
     % possible and the two reviews that describe the various versions:     %
     %                                                                      %
     %   T. Thonhauser et al., PRL 115, 136402 (2015).                      %
     %   T. Thonhauser et al., PRB 76, 125112 (2007).                       %
     %   K. Berland et al., Rep. Prog. Phys. 78, 066501 (2015).             %
     %   D.C. Langreth et al., J. Phys.: Condens. Matter 21, 084203 (2009). %
     %                                                                      %
     % If you are calculating stress with vdW-DF, please also cite:         %
     %                                                                      %
     %   R. Sabatini et al., J. Phys.: Condens. Matter 24, 424209 (2012).   %
     %                                                                      %
     %%%%%%%%%%%%%%%%%%%%%%%%%%%%%%%%%%%%%%%%%%%%%%%%%%%%%%%%%%%%%%%%%%%%%%%%

     %%%%%%%%%%%%%%%%%%%%%%%%%%%%%%%%%%%%%%%%%%%%%%%%%%%%%%%%%%%%%%%%%%%%%%%%
     %                                                                      %
     %  vdW-DF NEWS:                                                        %
     %                                                                      %
     %  * vdW-DF3 is now available. DOI: 10.1021/acs.jctc.0c00471           %
     %    use with input_dft = 'vdW-DF3-opt1' or 'vdW-DF3-opt2'             %
     %                                                                      %
     %  * Unscreened and range-separated hybrid vdW-DF-cx functionals       %
     %    DOI: 10.1063/1.4986522 and 10.1088/1361-648X/ac2ad2               %
     %    use with input_dft = 'vdW-DF-cx0'    and 'vdW-DF-ahcx'            %
     %  * Unscreened and range-separated hybrid vdW-DF2-b86r functionals    %
     %    DOI: 10.1063/1.4986522 and DOI: 10.1103/PhysRevX.12.041003        %
     %    use with input_dft = 'vdW-DF2-br0' and 'vdW-DF2-ahbr'             %
     %                                                                      %
     %%%%%%%%%%%%%%%%%%%%%%%%%%%%%%%%%%%%%%%%%%%%%%%%%%%%%%%%%%%%%%%%%%%%%%%%


     Starting wfcs are   62 randomized atomic wfcs
     Checking if some PAW data can be deallocated... 

     total cpu time spent up to now is       30.5 secs

     per-process dynamical memory:   142.9 Mb

     Self-consistent Calculation

     iteration #  1     ecut=    80.00 Ry     beta= 0.10
     Davidson diagonalization with overlap
     ethr =  1.00E-02,  avg # of iterations =  3.9

     Threshold (ethr) on eigenvalues was too large:
     Diagonalizing with lowered threshold

     Davidson diagonalization with overlap
     ethr =  1.07E-04,  avg # of iterations =  5.4

     negative rho (up, down):  8.398E-05 0.000E+00

     total cpu time spent up to now is      139.3 secs

     total energy              =   -3113.99708658 Ry
     estimated scf accuracy    <       0.12741510 Ry

     iteration #  2     ecut=    80.00 Ry     beta= 0.10
     Davidson diagonalization with overlap
     ethr =  1.38E-04,  avg # of iterations =  1.0

     negative rho (up, down):  4.379E-05 0.000E+00

     total cpu time spent up to now is      179.9 secs

     total energy              =   -3113.95090225 Ry
     estimated scf accuracy    <       0.11474633 Ry

     iteration #  3     ecut=    80.00 Ry     beta= 0.10
     Davidson diagonalization with overlap
     ethr =  1.25E-04,  avg # of iterations =  3.8

     negative rho (up, down):  1.655E-05 0.000E+00

     total cpu time spent up to now is      235.5 secs

     total energy              =   -3113.96693977 Ry
     estimated scf accuracy    <       0.01894205 Ry

     iteration #  4     ecut=    80.00 Ry     beta= 0.10
     Davidson diagonalization with overlap
     ethr =  2.06E-05,  avg # of iterations =  4.1

     negative rho (up, down):  1.111E-06 0.000E+00

     total cpu time spent up to now is      288.0 secs

     total energy              =   -3113.96373741 Ry
     estimated scf accuracy    <       0.01704401 Ry

     iteration #  5     ecut=    80.00 Ry     beta= 0.10
     Davidson diagonalization with overlap
     ethr =  1.85E-05,  avg # of iterations =  2.7

     negative rho (up, down):  8.014E-07 0.000E+00

     total cpu time spent up to now is      338.7 secs

     total energy              =   -3113.96500265 Ry
     estimated scf accuracy    <       0.00239390 Ry

     iteration #  6     ecut=    80.00 Ry     beta= 0.10
     Davidson diagonalization with overlap
     ethr =  2.60E-06,  avg # of iterations =  8.6

     negative rho (up, down):  1.572E-07 0.000E+00

     total cpu time spent up to now is      387.4 secs

     total energy              =   -3113.96420633 Ry
     estimated scf accuracy    <       0.00206122 Ry

     iteration #  7     ecut=    80.00 Ry     beta= 0.10
     Davidson diagonalization with overlap
     ethr =  2.24E-06,  avg # of iterations =  5.8

     negative rho (up, down):  1.300E-07 0.000E+00

     total cpu time spent up to now is      441.4 secs

     total energy              =   -3113.96431325 Ry
     estimated scf accuracy    <       0.00160662 Ry

     iteration #  8     ecut=    80.00 Ry     beta= 0.10
     Davidson diagonalization with overlap
     ethr =  1.75E-06,  avg # of iterations =  1.3

     negative rho (up, down):  3.142E-07 0.000E+00

     total cpu time spent up to now is      483.1 secs

     total energy              =   -3113.96428238 Ry
     estimated scf accuracy    <       0.00079879 Ry

     iteration #  9     ecut=    80.00 Ry     beta= 0.10
     Davidson diagonalization with overlap
     ethr =  8.68E-07,  avg # of iterations =  1.8

     negative rho (up, down):  2.889E-07 0.000E+00

     total cpu time spent up to now is      526.3 secs

     total energy              =   -3113.96430007 Ry
     estimated scf accuracy    <       0.00063054 Ry

     iteration # 10     ecut=    80.00 Ry     beta= 0.10
     Davidson diagonalization with overlap
     ethr =  6.85E-07,  avg # of iterations =  1.0

     negative rho (up, down):  9.934E-08 0.000E+00

     total cpu time spent up to now is      564.8 secs

     total energy              =   -3113.96425475 Ry
     estimated scf accuracy    <       0.00058421 Ry

     iteration # 11     ecut=    80.00 Ry     beta= 0.10
     Davidson diagonalization with overlap
     ethr =  6.35E-07,  avg # of iterations =  2.6

     negative rho (up, down):  8.309E-05 0.000E+00

     total cpu time spent up to now is      606.8 secs

     total energy              =   -3113.96419694 Ry
     estimated scf accuracy    <       0.00048379 Ry

     iteration # 12     ecut=    80.00 Ry     beta= 0.10
     Davidson diagonalization with overlap
     ethr =  5.26E-07,  avg # of iterations =  5.5

     negative rho (up, down):  8.798E-04 0.000E+00

     total cpu time spent up to now is      651.0 secs

     total energy              =   -3113.96420968 Ry
     estimated scf accuracy    <       0.00044585 Ry

     iteration # 13     ecut=    80.00 Ry     beta= 0.10
     Davidson diagonalization with overlap
     ethr =  4.85E-07,  avg # of iterations =  4.4

     negative rho (up, down):  2.417E-03 0.000E+00

     total cpu time spent up to now is      692.9 secs

     total energy              =   -3113.96419130 Ry
     estimated scf accuracy    <       0.00032629 Ry

     iteration # 14     ecut=    80.00 Ry     beta= 0.10
     Davidson diagonalization with overlap
     ethr =  3.55E-07,  avg # of iterations =  5.6

     negative rho (up, down):  2.208E-03 0.000E+00

     total cpu time spent up to now is      739.7 secs

     total energy              =   -3113.96418890 Ry
     estimated scf accuracy    <       0.00032316 Ry

     iteration # 15     ecut=    80.00 Ry     beta= 0.10
     Davidson diagonalization with overlap
     ethr =  3.51E-07,  avg # of iterations =  1.4

     negative rho (up, down):  2.399E-03 0.000E+00

     total cpu time spent up to now is      783.0 secs

     total energy              =   -3113.96420180 Ry
     estimated scf accuracy    <       0.00016509 Ry

     iteration # 16     ecut=    80.00 Ry     beta= 0.10
     Davidson diagonalization with overlap
     ethr =  1.79E-07,  avg # of iterations =  1.0

     negative rho (up, down):  2.058E-03 0.000E+00

     total cpu time spent up to now is      821.4 secs

     total energy              =   -3113.96419767 Ry
     estimated scf accuracy    <       0.00015347 Ry

     iteration # 17     ecut=    80.00 Ry     beta= 0.10
     Davidson diagonalization with overlap
     ethr =  1.67E-07,  avg # of iterations =  1.0

     negative rho (up, down):  3.097E-03 0.000E+00

     total cpu time spent up to now is      859.4 secs

     total energy              =   -3113.96407820 Ry
     estimated scf accuracy    <       0.00013648 Ry

     iteration # 18     ecut=    80.00 Ry     beta= 0.10
     Davidson diagonalization with overlap
     ethr =  1.48E-07,  avg # of iterations =  6.5

     negative rho (up, down):  3.347E-03 0.000E+00

     total cpu time spent up to now is      911.9 secs

     total energy              =   -3113.96412855 Ry
     estimated scf accuracy    <       0.00024299 Ry

     iteration # 19     ecut=    80.00 Ry     beta= 0.10
     Davidson diagonalization with overlap
     ethr =  1.48E-07,  avg # of iterations =  2.7

     negative rho (up, down):  3.158E-03 0.000E+00

     total cpu time spent up to now is      954.8 secs

     total energy              =   -3113.96412406 Ry
     estimated scf accuracy    <       0.00010898 Ry

     iteration # 20     ecut=    80.00 Ry     beta= 0.10
     Davidson diagonalization with overlap
     ethr =  1.18E-07,  avg # of iterations =  4.5

     negative rho (up, down):  3.185E-03 0.000E+00

     total cpu time spent up to now is     1005.1 secs

     total energy              =   -3113.96413852 Ry
     estimated scf accuracy    <       0.00005044 Ry

     iteration # 21     ecut=    80.00 Ry     beta= 0.10
     Davidson diagonalization with overlap
     ethr =  5.48E-08,  avg # of iterations =  1.0

     negative rho (up, down):  3.175E-03 0.000E+00

     total cpu time spent up to now is     1043.0 secs

     total energy              =   -3113.96414134 Ry
     estimated scf accuracy    <       0.00005475 Ry

     iteration # 22     ecut=    80.00 Ry     beta= 0.10
     Davidson diagonalization with overlap
     ethr =  5.48E-08,  avg # of iterations =  3.4

     negative rho (up, down):  2.979E-03 0.000E+00

     total cpu time spent up to now is     1091.9 secs

     total energy              =   -3113.96414515 Ry
     estimated scf accuracy    <       0.00008261 Ry

     iteration # 23     ecut=    80.00 Ry     beta= 0.10
     Davidson diagonalization with overlap
     ethr =  5.48E-08,  avg # of iterations =  2.0

     negative rho (up, down):  2.014E-03 0.000E+00

     total cpu time spent up to now is     1138.2 secs

     total energy              =   -3113.96414444 Ry
     estimated scf accuracy    <       0.00002372 Ry

     iteration # 24     ecut=    80.00 Ry     beta= 0.10
     Davidson diagonalization with overlap
     ethr =  2.58E-08,  avg # of iterations =  5.9

     negative rho (up, down):  1.087E-03 0.000E+00

     total cpu time spent up to now is     1181.4 secs

     total energy              =   -3113.96413498 Ry
     estimated scf accuracy    <       0.00001004 Ry

     iteration # 25     ecut=    80.00 Ry     beta= 0.10
     Davidson diagonalization with overlap
     ethr =  1.09E-08,  avg # of iterations =  3.3

     negative rho (up, down):  1.058E-03 0.000E+00

     total cpu time spent up to now is     1233.0 secs

     total energy              =   -3113.96413853 Ry
     estimated scf accuracy    <       0.00000646 Ry

     iteration # 26     ecut=    80.00 Ry     beta= 0.10
     Davidson diagonalization with overlap
     ethr =  7.02E-09,  avg # of iterations =  1.0

     negative rho (up, down):  6.793E-04 0.000E+00

     total cpu time spent up to now is     1271.0 secs

     total energy              =   -3113.96413886 Ry
     estimated scf accuracy    <       0.00000646 Ry

     iteration # 27     ecut=    80.00 Ry     beta= 0.10
     Davidson diagonalization with overlap
     ethr =  7.02E-09,  avg # of iterations =  2.9

     negative rho (up, down):  5.322E-04 0.000E+00

     total cpu time spent up to now is     1318.6 secs

     total energy              =   -3113.96413937 Ry
     estimated scf accuracy    <       0.00000108 Ry

     iteration # 28     ecut=    80.00 Ry     beta= 0.10
     Davidson diagonalization with overlap
     ethr =  1.17E-09,  avg # of iterations =  1.8

     negative rho (up, down):  2.583E-04 0.000E+00

     total cpu time spent up to now is     1361.5 secs

     total energy              =   -3113.96414237 Ry
     estimated scf accuracy    <       0.00000069 Ry

     iteration # 29     ecut=    80.00 Ry     beta= 0.10
     Davidson diagonalization with overlap
     ethr =  7.48E-10,  avg # of iterations =  3.1

     negative rho (up, down):  1.854E-04 0.000E+00

     total cpu time spent up to now is     1409.7 secs

     total energy              =   -3113.96414405 Ry
     estimated scf accuracy    <       0.00000046 Ry

     iteration # 30     ecut=    80.00 Ry     beta= 0.10
     Davidson diagonalization with overlap
     ethr =  4.97E-10,  avg # of iterations =  2.0

     negative rho (up, down):  1.927E-04 0.000E+00

     total cpu time spent up to now is     1456.1 secs

     total energy              =   -3113.96414457 Ry
     estimated scf accuracy    <       0.00000014 Ry

     iteration # 31     ecut=    80.00 Ry     beta= 0.10
     Davidson diagonalization with overlap
     ethr =  1.49E-10,  avg # of iterations =  2.6

     negative rho (up, down):  1.858E-04 0.000E+00

     total cpu time spent up to now is     1501.3 secs

     total energy              =   -3113.96414486 Ry
     estimated scf accuracy    <       0.00000017 Ry

     iteration # 32     ecut=    80.00 Ry     beta= 0.10
     Davidson diagonalization with overlap
     ethr =  1.49E-10,  avg # of iterations =  2.0

     negative rho (up, down):  1.703E-04 0.000E+00

     total cpu time spent up to now is     1547.4 secs

     End of self-consistent calculation

          k = 0.0000 0.0000 0.0000 ( 38015 PWs)   bands (ev):

   -74.8858 -74.8853 -48.1537 -48.1537 -48.1528 -48.1528 -48.1518 -48.1518
   -48.1503 -48.1503 -48.1234 -48.1234 -48.1225 -48.1225 -48.1210 -48.1210
   -48.1196 -48.1196 -48.1095 -48.1086 -48.1068 -48.1055 -39.0789 -39.0784
   -39.0438 -39.0437 -39.0428 -39.0428 -15.5161 -15.5108 -14.4470 -14.4395
    -7.0031  -6.9516  -3.4439  -3.3566  -3.3566  -3.3517  -3.3517  -3.2336
    -1.4027  -1.2417  -0.6928  -0.6927  -0.6904  -0.6904   0.2045   0.2045
     0.2073   0.2073   3.3124   3.4063   3.4063   3.4101   3.4101

          k = 0.0000 0.0722 0.0000 ( 37975 PWs)   bands (ev):

   -74.8854 -74.8849 -48.1537 -48.1535 -48.1528 -48.1526 -48.1518 -48.1516
   -48.1503 -48.1501 -48.1235 -48.1234 -48.1226 -48.1225 -48.1210 -48.1210
   -48.1196 -48.1196 -48.1094 -48.1085 -48.1067 -48.1054 -39.0771 -39.0766
   -39.0528 -39.0519 -39.0459 -39.0449 -15.4550 -15.4497 -14.4189 -14.4115
    -6.9207  -6.8692  -3.8869  -3.8064  -3.3219  -3.3170  -2.9871  -2.8622
    -1.4557  -1.3429  -0.9909  -0.9605  -0.9216  -0.9190   0.1766   0.2118
     0.4057   0.4083   3.0504   3.0827   3.3641   3.3688   3.4752

          k = 0.0000 0.1443 0.0000 ( 37895 PWs)   bands (ev):

   -74.8842 -74.8838 -48.1537 -48.1530 -48.1527 -48.1521 -48.1518 -48.1511
   -48.1503 -48.1496 -48.1237 -48.1235 -48.1228 -48.1226 -48.1212 -48.1210
   -48.1198 -48.1196 -48.1091 -48.1082 -48.1065 -48.1051 -39.0787 -39.0777
   -39.0718 -39.0713 -39.0519 -39.0510 -15.2760 -15.2707 -14.3367 -14.3297
    -6.6809  -6.6294  -4.3801  -4.3189  -3.2388  -3.2339  -2.7603  -2.6479
    -2.0495  -2.0282  -1.3051  -1.3022  -1.2451  -1.1391   0.1546   0.2377
     0.7093   0.7119   2.4473   2.5499   3.2868   3.2930   3.8045

          k = 0.0000 0.2165 0.0000 ( 37851 PWs)   bands (ev):

   -74.8825 -74.8821 -48.1537 -48.1527 -48.1522 -48.1518 -48.1513 -48.1503
   -48.1503 -48.1488 -48.1240 -48.1236 -48.1231 -48.1227 -48.1215 -48.1211
   -48.1201 -48.1197 -48.1087 -48.1078 -48.1061 -48.1047 -39.1170 -39.1160
   -39.0642 -39.0637 -39.0609 -39.0600 -14.9925 -14.9874 -14.2069 -14.2005
    -6.3128  -6.2623  -4.8241  -4.7778  -3.3035  -3.2938  -3.1757  -3.1710
    -2.4997  -2.3992  -1.5977  -1.5944  -1.3661  -1.2977   0.1745   0.2911
     0.9115   0.9146   2.0959   2.2849   3.2594   3.2672   4.1999

          k = 0.0000 0.2887 0.0000 ( 37919 PWs)   bands (ev):

   -74.8805 -74.8801 -48.1537 -48.1528 -48.1518 -48.1514 -48.1504 -48.1503
   -48.1494 -48.1479 -48.1244 -48.1237 -48.1235 -48.1228 -48.1218 -48.1212
   -48.1204 -48.1198 -48.1083 -48.1074 -48.1056 -48.1043 -39.1619 -39.1609
   -39.0716 -39.0706 -39.0550 -39.0546 -14.6316 -14.6267 -14.0383 -14.0326
    -5.9181  -5.8750  -5.1355  -5.0984  -4.3598  -4.3528  -3.2212  -3.2167
    -2.6579  -2.5825  -1.6954  -1.6918  -1.6548  -1.6182   0.3230   0.4528
     1.0160   1.0193   2.1965   2.4662   3.3037   3.3133   4.6621

          k = 0.0000 0.3608 0.0000 ( 37933 PWs)   bands (ev):

   -74.8785 -74.8781 -48.1537 -48.1528 -48.1518 -48.1505 -48.1503 -48.1496
   -48.1486 -48.1471 -48.1247 -48.1239 -48.1238 -48.1230 -48.1221 -48.1213
   -48.1207 -48.1199 -48.1079 -48.1070 -48.1052 -48.1039 -39.2064 -39.2054
   -39.0822 -39.0812 -39.0459 -39.0454 -14.2468 -14.2422 -13.8328 -13.8279
    -5.9145  -5.8994  -5.3421  -5.3248  -4.9359  -4.8958  -3.3703  -3.3659
    -2.9890  -2.9430  -1.9564  -1.9258  -1.6350  -1.6310   0.6670   0.7851
     1.1093   1.1122   2.6155   2.9286   3.3764   3.3882   5.0096

          k = 0.0000 0.4330 0.0000 ( 37998 PWs)   bands (ev):

   -74.8768 -74.8764 -48.1538 -48.1529 -48.1518 -48.1503 -48.1497 -48.1488
   -48.1478 -48.1463 -48.1251 -48.1242 -48.1240 -48.1231 -48.1224 -48.1214
   -48.1210 -48.1200 -48.1075 -48.1066 -48.1048 -48.1035 -39.2439 -39.2429
   -39.0911 -39.0902 -39.0381 -39.0377 -13.9419 -13.9379 -13.5693 -13.5652
    -6.5233  -6.5188  -5.6138  -5.5920  -4.7065  -4.6799  -3.5348  -3.5305
    -3.2794  -3.2385  -2.1404  -2.1160  -1.5397  -1.5353   1.1454   1.2374
     1.2485   1.2507   3.1313   3.3927   3.4373   3.4511   4.5291

          k = 0.0000 0.5052 0.0000 ( 38048 PWs)   bands (ev):

   -74.8757 -74.8752 -48.1539 -48.1529 -48.1518 -48.1503 -48.1493 -48.1483
   -48.1474 -48.1459 -48.1253 -48.1244 -48.1240 -48.1231 -48.1225 -48.1214
   -48.1211 -48.1200 -48.1072 -48.1064 -48.1046 -48.1033 -39.2688 -39.2678
   -39.0971 -39.0961 -39.0329 -39.0325 -13.7801 -13.7765 -13.3006 -13.2973
    -7.0873  -7.0829  -5.6281  -5.6129  -4.7756  -4.7613  -3.6516  -3.6473
    -3.2119  -3.1719  -2.2542  -2.2381  -1.4786  -1.4737   1.3980   1.4000
     1.6341   1.6925   3.3896   3.4730   3.4881   3.4921   4.3724

          k = 0.0000-0.5774 0.0000 ( 38024 PWs)   bands (ev):

   -74.8753 -74.8748 -48.1539 -48.1529 -48.1517 -48.1503 -48.1491 -48.1482
   -48.1472 -48.1457 -48.1254 -48.1245 -48.1241 -48.1232 -48.1226 -48.1214
   -48.1212 -48.1200 -48.1072 -48.1063 -48.1045 -48.1032 -39.2775 -39.2765
   -39.0992 -39.0982 -39.0311 -39.0306 -13.7302 -13.7268 -13.1859 -13.1831
    -7.3000  -7.2959  -5.5887  -5.5818  -4.8980  -4.8830  -3.6929  -3.6887
    -3.0919  -3.0600  -2.3057  -2.2927  -1.4596  -1.4545   1.4646   1.4667
     1.8730   1.9000   3.4202   3.4843   3.5000   3.5035   4.1267

          k = 0.0625 0.1083 0.0000 ( 37895 PWs)   bands (ev):

   -74.8846 -74.8842 -48.1537 -48.1532 -48.1527 -48.1523 -48.1518 -48.1513
   -48.1503 -48.1498 -48.1236 -48.1235 -48.1227 -48.1226 -48.1212 -48.1210
   -48.1198 -48.1196 -48.1092 -48.1083 -48.1065 -48.1052 -39.0736 -39.0731
   -39.0700 -39.0690 -39.0502 -39.0493 -15.3349 -15.3296 -14.3637 -14.3566
    -6.7592  -6.7077  -4.2484  -4.1822  -3.2707  -3.2658  -2.7877  -2.6632
    -1.7898  -1.7698  -1.3176  -1.3091  -1.1526  -1.0487   0.2310   0.2981
     0.5580   0.5602   2.6777   2.7563   3.2261   3.2301   3.7150

          k = 0.0625 0.1804 0.0000 ( 37885 PWs)   bands (ev):

   -74.8832 -74.8828 -48.1536 -48.1527 -48.1526 -48.1518 -48.1516 -48.1506
   -48.1502 -48.1491 -48.1239 -48.1236 -48.1230 -48.1227 -48.1214 -48.1211
   -48.1200 -48.1197 -48.1089 -48.1080 -48.1062 -48.1049 -39.1013 -39.1004
   -39.0673 -39.0668 -39.0583 -39.0574 -15.1032 -15.0981 -14.2579 -14.2512
    -6.4512  -6.4000  -4.6717  -4.6204  -3.2621  -3.2574  -2.8328  -2.7809
    -2.4914  -2.4433  -1.6672  -1.6447  -1.1841  -1.0888   0.2816   0.3659
     0.6574   0.6762   2.3640   2.5046   3.0773   3.0842   4.0570

          k = 0.0625 0.2526 0.0000 ( 37916 PWs)   bands (ev):

   -74.8813 -74.8809 -48.1536 -48.1527 -48.1518 -48.1517 -48.1508 -48.1502
   -48.1499 -48.1483 -48.1242 -48.1237 -48.1233 -48.1228 -48.1217 -48.1212
   -48.1203 -48.1198 -48.1085 -48.1076 -48.1058 -48.1045 -39.1420 -39.1410
   -39.0694 -39.0685 -39.0586 -39.0581 -14.7792 -14.7741 -14.1096 -14.1036
    -6.0441  -5.9956  -5.0386  -4.9989  -3.9033  -3.8991  -3.2039  -3.1939
    -2.6297  -2.5698  -1.9264  -1.9056  -1.2365  -1.1792   0.2324   0.3240
     0.8500   0.8983   2.2723   2.4584   3.0785   3.1102   4.4806

          k = 0.0625 0.3248 0.0000 ( 37964 PWs)   bands (ev):

   -74.8793 -74.8789 -48.1536 -48.1527 -48.1517 -48.1509 -48.1502 -48.1500
   -48.1490 -48.1475 -48.1246 -48.1238 -48.1237 -48.1229 -48.1220 -48.1213
   -48.1206 -48.1199 -48.1080 -48.1072 -48.1054 -48.1041 -39.1857 -39.1847
   -39.0810 -39.0800 -39.0495 -39.0490 -14.3995 -14.3947 -13.9269 -13.9217
    -5.7635  -5.7326  -5.2039  -5.1730  -4.8334  -4.8157  -3.4367  -3.4268
    -2.7340  -2.6912  -2.2487  -2.2420  -1.2819  -1.2486   0.3439   0.4372
     1.1064   1.1499   2.4212   2.6199   3.1957   3.2831   4.9650

          k = 0.0625 0.3969 0.0000 ( 37981 PWs)   bands (ev):

   -74.8775 -74.8770 -48.1537 -48.1527 -48.1517 -48.1502 -48.1501 -48.1492
   -48.1482 -48.1467 -48.1249 -48.1240 -48.1239 -48.1230 -48.1222 -48.1214
   -48.1208 -48.1200 -48.1076 -48.1068 -48.1050 -48.1037 -39.2257 -39.2247
   -39.0917 -39.0907 -39.0411 -39.0406 -14.0416 -14.0374 -13.7002 -13.6957
    -6.1364  -6.1317  -5.5225  -5.5009  -4.7872  -4.7495  -3.6864  -3.6749
    -2.9917  -2.9664  -2.4792  -2.4690  -1.2688  -1.2495   0.6471   0.7192
     1.3790   1.4144   2.7275   2.8637   3.3806   3.5447   4.9288

          k = 0.0625 0.4691 0.0000 ( 38057 PWs)   bands (ev):

   -74.8761 -74.8756 -48.1537 -48.1528 -48.1516 -48.1502 -48.1495 -48.1486
   -48.1476 -48.1461 -48.1252 -48.1243 -48.1240 -48.1231 -48.1224 -48.1215
   -48.1211 -48.1201 -48.1073 -48.1065 -48.1047 -48.1034 -39.2561 -39.2551
   -39.0999 -39.0989 -39.0346 -39.0342 -13.8136 -13.8098 -13.4198 -13.4162
    -6.7888  -6.7844  -5.6246  -5.6064  -4.6623  -4.6448  -3.8010  -3.7886
    -3.1604  -3.1335  -2.5754  -2.5661  -1.2690  -1.2591   1.0389   1.0810
     1.6524   1.6840   2.9910   3.0473   3.5584   3.6662   4.5736

          k = 0.0625 0.5413 0.0000 ( 38034 PWs)   bands (ev):

   -74.8753 -74.8748 -48.1537 -48.1528 -48.1516 -48.1501 -48.1492 -48.1483
   -48.1473 -48.1458 -48.1253 -48.1244 -48.1241 -48.1232 -48.1225 -48.1215
   -48.1212 -48.1201 -48.1072 -48.1063 -48.1045 -48.1032 -39.2726 -39.2715
   -39.1043 -39.1034 -39.0311 -39.0307 -13.7138 -13.7104 -13.2129 -13.2100
    -7.1879  -7.1837  -5.5947  -5.5850  -4.8186  -4.8041  -3.8071  -3.8014
    -3.0836  -3.0564  -2.6239  -2.6185  -1.2940  -1.2879   1.3602   1.3732
     1.8269   1.8520   3.1649   3.1874   3.4776   3.5690   4.4187

          k = 0.1250 0.2165 0.0000 ( 37933 PWs)   bands (ev):

   -74.8816 -74.8812 -48.1536 -48.1526 -48.1520 -48.1517 -48.1510 -48.1502
   -48.1501 -48.1485 -48.1241 -48.1237 -48.1233 -48.1228 -48.1216 -48.1212
   -48.1202 -48.1198 -48.1085 -48.1077 -48.1059 -48.1046 -39.1337 -39.1327
   -39.0701 -39.0691 -39.0597 -39.0592 -14.8297 -14.8246 -14.1341 -14.1280
    -6.0894  -6.0394  -4.9914  -4.9503  -3.7367  -3.7332  -3.0034  -2.9530
    -2.8993  -2.8954  -1.9349  -1.8905  -1.0796  -0.9946   0.2616   0.2934
     0.6560   0.7595   2.6026   2.6897   2.6961   2.8041   4.4215

          k = 0.1250 0.2887 0.0000 ( 37936 PWs)   bands (ev):

   -74.8798 -74.8793 -48.1535 -48.1525 -48.1516 -48.1512 -48.1503 -48.1501
   -48.1493 -48.1478 -48.1245 -48.1238 -48.1236 -48.1229 -48.1218 -48.1213
   -48.1205 -48.1199 -48.1081 -48.1073 -48.1055 -48.1042 -39.1710 -39.1700
   -39.0838 -39.0829 -39.0514 -39.0509 -14.4805 -14.4756 -13.9755 -13.9701
    -5.6710  -5.6280  -5.2444  -5.2111  -4.5464  -4.5404  -3.4490  -3.4279
    -2.9784  -2.9698  -2.2104  -2.1832  -0.9579  -0.8943   0.0643   0.1286
     1.0429   1.1325   2.3792   2.4130   2.9613   3.1780   4.8761

          k = 0.1250 0.3608 0.0000 ( 38000 PWs)   bands (ev):

   -74.8779 -74.8775 -48.1534 -48.1525 -48.1514 -48.1505 -48.1500 -48.1496
   -48.1486 -48.1471 -48.1248 -48.1239 -48.1239 -48.1230 -48.1221 -48.1215
   -48.1207 -48.1201 -48.1077 -48.1069 -48.1051 -48.1038 -39.2077 -39.2067
   -39.0980 -39.0970 -39.0430 -39.0426 -14.1053 -14.1009 -13.7873 -13.7827
    -5.7250  -5.7147  -5.3774  -5.3616  -4.9232  -4.8785  -3.8329  -3.8186
    -3.0816  -3.0743  -2.6383  -2.6257  -0.8690  -0.8267   0.1701   0.2426
     1.4438   1.5005   2.2905   2.3406   3.3119   3.5551   5.3705

          k = 0.1250 0.4330 0.0000 ( 38048 PWs)   bands (ev):

   -74.8763 -74.8759 -48.1534 -48.1524 -48.1513 -48.1500 -48.1499 -48.1490
   -48.1481 -48.1466 -48.1251 -48.1242 -48.1241 -48.1232 -48.1223 -48.1215
   -48.1209 -48.1201 -48.1074 -48.1065 -48.1048 -48.1034 -39.2386 -39.2376
   -39.1100 -39.1091 -39.0359 -39.0355 -13.8121 -13.8082 -13.5427 -13.5388
    -6.3544  -6.3502  -5.5713  -5.5525  -4.5717  -4.5423  -4.0840  -4.0675
    -3.2101  -3.2053  -3.0081  -2.9961  -0.8805  -0.8552   0.5289   0.5885
     1.7450   1.7709   2.3910   2.4455   3.6229   3.8120   5.0853

          k = 0.1250 0.5052 0.0000 ( 38027 PWs)   bands (ev):

   -74.8753 -74.8748 -48.1533 -48.1524 -48.1513 -48.1498 -48.1495 -48.1486
   -48.1477 -48.1462 -48.1252 -48.1243 -48.1242 -48.1233 -48.1225 -48.1216
   -48.1211 -48.1202 -48.1072 -48.1063 -48.1045 -48.1032 -39.2591 -39.2581
   -39.1181 -39.1172 -39.0311 -39.0307 -13.6658 -13.6624 -13.2859 -13.2828
    -6.8751  -6.8709  -5.5912  -5.5790  -4.6250  -4.6112  -4.0492  -4.0347
    -3.2989  -3.2947  -3.1141  -3.0979  -0.9639  -0.9477   0.9950   1.0324
     1.8339   1.8453   2.5926   2.6366   3.6579   3.7489   4.8658

          k = 0.1250 0.5774 0.0000 ( 37968 PWs)   bands (ev):

   -74.8749 -74.8745 -48.1533 -48.1524 -48.1512 -48.1497 -48.1494 -48.1484
   -48.1475 -48.1460 -48.1253 -48.1244 -48.1242 -48.1233 -48.1225 -48.1216
   -48.1211 -48.1202 -48.1071 -48.1062 -48.1044 -48.1031 -39.2662 -39.2652
   -39.1210 -39.1200 -39.0295 -39.0290 -13.6209 -13.6177 -13.1782 -13.1755
    -7.0682  -7.0641  -5.5718  -5.5661  -4.7309  -4.7165  -4.0247  -4.0161
    -3.3180  -3.3151  -3.0823  -3.0668  -1.0149  -1.0002   1.3040   1.3119
     1.7408   1.7553   2.7504   2.7519   3.5247   3.6206   4.8643

          k = 0.1875 0.3248 0.0000 ( 37987 PWs)   bands (ev):

   -74.8781 -74.8776 -48.1533 -48.1523 -48.1513 -48.1507 -48.1498 -48.1498
   -48.1488 -48.1473 -48.1248 -48.1239 -48.1239 -48.1230 -48.1220 -48.1215
   -48.1207 -48.1201 -48.1078 -48.1069 -48.1051 -48.1038 -39.1996 -39.1986
   -39.1020 -39.1010 -39.0437 -39.0433 -14.1273 -14.1228 -13.8176 -13.8129
    -5.4312  -5.4082  -5.3958  -5.3877  -4.9983  -4.9572  -3.8372  -3.8179
    -3.3860  -3.3824  -2.5158  -2.5054  -0.6257  -0.5674  -0.0939  -0.0277
     1.4423   1.5146   2.1144   2.1313   3.2958   3.5570   5.3549

          k = 0.1875 0.3969 0.0000 ( 38014 PWs)   bands (ev):

   -74.8765 -74.8760 -48.1530 -48.1521 -48.1510 -48.1503 -48.1496 -48.1493
   -48.1484 -48.1469 -48.1250 -48.1241 -48.1241 -48.1232 -48.1222 -48.1216
   -48.1208 -48.1202 -48.1074 -48.1066 -48.1048 -48.1035 -39.2243 -39.2233
   -39.1204 -39.1194 -39.0366 -39.0362 -13.7843 -13.7802 -13.6373 -13.6333
    -5.9364  -5.9329  -5.5242  -5.5061  -4.6250  -4.5832  -4.1876  -4.1728
    -3.7305  -3.7268  -2.9151  -2.9129  -0.4507  -0.4114   0.0536   0.1125
     1.7716   1.8117   2.0182   2.0582   3.6558   3.8809   5.6260

          k = 0.1875 0.4691 0.0000 ( 38010 PWs)   bands (ev):

   -74.8753 -74.8748 -48.1529 -48.1519 -48.1508 -48.1500 -48.1494 -48.1490
   -48.1481 -48.1466 -48.1251 -48.1242 -48.1242 -48.1233 -48.1224 -48.1217
   -48.1210 -48.1203 -48.1072 -48.1063 -48.1045 -48.1032 -39.2422 -39.2412
   -39.1353 -39.1343 -39.0312 -39.0307 -13.5903 -13.5868 -13.3857 -13.3823
    -6.4515  -6.4477  -5.5716  -5.5595  -4.4397  -4.4272  -4.2475  -4.2213
    -3.9827  -3.9777  -3.2133  -3.2103  -0.5372  -0.5131   0.5034   0.5426
     1.8449   1.8581   2.1718   2.2337   3.8435   3.9474   5.2221

          k = 0.1875 0.5413 0.0000 ( 38010 PWs)   bands (ev):

   -74.8746 -74.8742 -48.1528 -48.1518 -48.1507 -48.1498 -48.1493 -48.1488
   -48.1479 -48.1464 -48.1252 -48.1243 -48.1243 -48.1234 -48.1225 -48.1218
   -48.1211 -48.1204 -48.1070 -48.1062 -48.1044 -48.1031 -39.2516 -39.2506
   -39.1437 -39.1427 -39.0282 -39.0278 -13.5116 -13.5084 -13.2017 -13.1990
    -6.7512  -6.7472  -5.5762  -5.5702  -4.5707  -4.5585  -4.1771  -4.1652
    -4.0604  -4.0556  -3.2681  -3.2613  -0.6431  -0.6243   0.9844   1.0016
     1.6177   1.6242   2.4549   2.5016   3.6475   3.7359   5.1983

          k = 0.2500 0.4330 0.0000 ( 38031 PWs)   bands (ev):

   -74.8753 -74.8748 -48.1526 -48.1517 -48.1506 -48.1502 -48.1494 -48.1490
   -48.1483 -48.1468 -48.1251 -48.1242 -48.1242 -48.1234 -48.1224 -48.1218
   -48.1210 -48.1204 -48.1072 -48.1063 -48.1046 -48.1032 -39.2334 -39.2324
   -39.1443 -39.1433 -39.0312 -39.0307 -13.5042 -13.5008 -13.4815 -13.4781
    -6.1971  -6.1941  -5.5682  -5.5570  -4.4210  -4.4125  -4.3867  -4.3713
    -4.1827  -4.1592  -3.2858  -3.2799  -0.0679  -0.0240   0.0066   0.0237
     1.8243   1.8515   2.0487   2.1084   3.9195   4.0403   5.4138

          k = 0.2500 0.5052 0.0000 ( 38019 PWs)   bands (ev):

   -74.8745 -74.8740 -48.1523 -48.1513 -48.1504 -48.1500 -48.1494 -48.1486
   -48.1483 -48.1468 -48.1251 -48.1244 -48.1242 -48.1235 -48.1225 -48.1219
   -48.1211 -48.1205 -48.1070 -48.1061 -48.1044 -48.1031 -39.2356 -39.2346
   -39.1641 -39.1631 -39.0275 -39.0271 -13.4046 -13.4016 -13.2670 -13.2641
    -6.3688  -6.3652  -5.5952  -5.5893  -4.8103  -4.8069  -4.3839  -4.3696
    -4.0549  -4.0380  -3.5479  -3.5437  -0.1633  -0.1407   0.4369   0.4514
     1.5593   1.5619   2.3681   2.4558   3.8365   3.8799   5.1053

          k = 0.2500 0.5774 0.0000 ( 38023 PWs)   bands (ev):

   -74.8742 -74.8738 -48.1521 -48.1512 -48.1504 -48.1499 -48.1494 -48.1484
   -48.1484 -48.1469 -48.1250 -48.1245 -48.1242 -48.1236 -48.1225 -48.1219
   -48.1211 -48.1205 -48.1070 -48.1061 -48.1043 -48.1030 -39.2351 -39.2341
   -39.1723 -39.1713 -39.0263 -39.0258 -13.3693 -13.3663 -13.1869 -13.1843
    -6.4270  -6.4230  -5.6012  -5.5974  -4.9785  -4.9750  -4.2218  -4.2127
    -4.2084  -4.1971  -3.5641  -3.5621  -0.2224  -0.2032   0.7966   0.8063
     1.2223   1.2267   2.6738   2.7168   3.5872   3.6372   5.0350

          k = 0.3125 0.5413 0.0000 ( 38095 PWs)   bands (ev):

   -74.8740 -74.8736 -48.1517 -48.1508 -48.1506 -48.1497 -48.1495 -48.1487
   -48.1481 -48.1472 -48.1250 -48.1246 -48.1241 -48.1237 -48.1225 -48.1220
   -48.1211 -48.1206 -48.1070 -48.1061 -48.1043 -48.1030 -39.2203 -39.2193
   -39.1915 -39.1905 -39.0256 -39.0252 -13.2820 -13.2791 -13.2198 -13.2172
    -6.1164  -6.1128  -5.6306  -5.6273  -5.4167  -5.4130  -4.2285  -4.2154
    -3.9304  -3.9217  -3.9000  -3.8886   0.2145   0.2397   0.4007   0.4155
     1.0750   1.0779   2.8570   2.9444   3.5076   3.5582   4.8292

     the Fermi energy is    -0.0134 ev

!    total energy              =   -3113.96414473 Ry
     total all-electron energy =    -83998.688709 Ry
     estimated scf accuracy    <          8.7E-09 Ry
     smearing contrib. (-TS)   =       0.00043159 Ry
     internal energy E=F+TS    =   -3113.96457632 Ry

     The total energy is F=E-TS. E is the sum of the following terms:
     one-electron contribution =  -25651.35802187 Ry
     hartree contribution      =   12812.82298275 Ry
     xc contribution           =    -193.57736863 Ry
     ewald contribution        =   11679.46168870 Ry
     one-center paw contrib.   =   -1761.31385726 Ry

     convergence has been achieved in  32 iterations

     Writing all to output data dir ./tmp/cleave_009/wse2_cleave_009.save/ :
     XML data file, charge density, pseudopotentials, collected wavefunctions

     init_run     :     28.69s CPU     30.11s WALL (       1 calls)
     electrons    :   1485.31s CPU   1516.95s WALL (       1 calls)

     Called by init_run:
     wfcinit      :     15.81s CPU     15.87s WALL (       1 calls)
     potinit      :     11.80s CPU     12.80s WALL (       1 calls)
     hinit0       :      0.13s CPU      0.14s WALL (       1 calls)

     Called by electrons:
     c_bands      :   1249.79s CPU   1268.53s WALL (      33 calls)
     sum_band     :    167.48s CPU    174.38s WALL (      33 calls)
     v_of_rho     :     38.38s CPU     40.90s WALL (      33 calls)
     newd         :     23.56s CPU     27.91s WALL (      33 calls)
     PAW_pot      :      3.28s CPU      3.33s WALL (      33 calls)
     mix_rho      :     14.76s CPU     14.99s WALL (      33 calls)
     vdW_kernel   :     10.88s CPU     11.78s WALL (       1 calls)

     Called by c_bands:
     init_us_2    :      5.39s CPU      5.41s WALL (    2010 calls)
     cegterg      :   1212.47s CPU   1230.05s WALL (     990 calls)

     Called by *egterg:
     cdiaghg      :     13.03s CPU     13.06s WALL (    4130 calls)
     h_psi        :    504.48s CPU    510.00s WALL (    4190 calls)
     s_psi        :    110.97s CPU    111.11s WALL (    4190 calls)
     g_psi        :      1.10s CPU      1.11s WALL (    3170 calls)

     Called by h_psi:
     h_psi:calbec :    191.97s CPU    195.04s WALL (    4190 calls)
     vloc_psi     :    185.32s CPU    187.60s WALL (    4190 calls)
                                        0.00s GPU  (    4190 calls)
     add_vuspsi   :    125.57s CPU    125.72s WALL (    4190 calls)

     General routines
     calbec       :    276.91s CPU    281.41s WALL (    5180 calls)
     fft          :     19.29s CPU     19.71s WALL (    2078 calls)
     ffts         :      5.75s CPU      5.86s WALL (    3879 calls)
     fftw         :    207.94s CPU    210.61s WALL (  294924 calls)
     interpolate  :      0.32s CPU      0.33s WALL (      33 calls)

     Parallel routines

     PWSCF        :  25m14.82s CPU  25m48.06s WALL


   This run was terminated on:  14:44:38  18Jun2026            

=------------------------------------------------------------------------------=
   JOB DONE.
=------------------------------------------------------------------------------=
Note: The following floating-point exceptions are signalling: IEEE_UNDERFLOW_FLAG IEEE_DENORMAL
Note: The following floating-point exceptions are signalling: IEEE_UNDERFLOW_FLAG IEEE_DENORMAL
Note: The following floating-point exceptions are signalling: IEEE_UNDERFLOW_FLAG IEEE_DENORMAL
Note: The following floating-point exceptions are signalling: IEEE_UNDERFLOW_FLAG IEEE_DENORMAL
Note: The following floating-point exceptions are signalling: IEEE_UNDERFLOW_FLAG IEEE_DENORMAL
Note: The following floating-point exceptions are signalling: IEEE_UNDERFLOW_FLAG IEEE_DENORMAL
Note: The following floating-point exceptions are signalling: IEEE_UNDERFLOW_FLAG IEEE_DENORMAL
Note: The following floating-point exceptions are signalling: IEEE_UNDERFLOW_FLAG IEEE_DENORMAL
Note: The following floating-point exceptions are signalling: IEEE_UNDERFLOW_FLAG IEEE_DENORMAL
Note: The following floating-point exceptions are signalling: IEEE_UNDERFLOW_FLAG IEEE_DENORMAL
Note: The following floating-point exceptions are signalling: IEEE_UNDERFLOW_FLAG IEEE_DENORMAL
Note: The following floating-point exceptions are signalling: IEEE_UNDERFLOW_FLAG IEEE_DENORMAL
