
     Program PWSCF v.7.5 starts on 19Jun2026 at 12:34:52 

     This program is part of the open-source Quantum ESPRESSO suite
     for quantum simulation of materials; please cite
         "P. Giannozzi et al., J. Phys.:Condens. Matter 21 395502 (2009);
         "P. Giannozzi et al., J. Phys.:Condens. Matter 29 465901 (2017);
         "P. Giannozzi et al., J. Chem. Phys. 152 154105 (2020);
          URL http://www.quantum-espresso.org", 
     in publications or presentations arising from this work. More details at
     http://www.quantum-espresso.org/quote

     Parallel version (MPI), running on    24 processors

     MPI processes distributed on     1 nodes
     51700 MiB available memory on the printing compute node when the environment starts

     Waiting for input...
     Reading input from standard input

     Current dimensions of program PWSCF are:
     Max number of different atomic species (ntypx) = 10
     Max number of k-points (npk) =  40000
     Max angular momentum in pseudopotentials (lmaxx) =  4
     file W.pbe-spn-kjpaw_psl.1.0.0.UPF: wavefunction(s)  6S 5P 5D renormalized
     file Se.pbe-dn-kjpaw_psl.1.0.0.UPF: wavefunction(s)  4S 4P 3D renormalized

     IMPORTANT: XC functional enforced from input :
     Exchange-correlation= VDW-DF2-B86R
                           (   1   4  26   0   2   0   0)
     Any further DFT definition will be discarded
     Please, verify this is what you really want


     R & G space division:  proc/nbgrp/npool/nimage =      24
     Subspace diagonalization in iterative solution of the eigenvalue problem:
     a serial algorithm will be used


     Parallelization info
     --------------------
     sticks:   dense  smooth     PW     G-vecs:    dense   smooth      PW
     Min          69      35     10                35699    12655    1944
     Max          70      36     12                35802    12730    1997
     Sum        1675     847    253               858263   304337   46813

     Using Slab Decomposition



     bravais-lattice index     =            4
     lattice parameter (alat)  =       6.1983  a.u.
     unit-cell volume          =    3143.7277 (a.u.)^3
     number of atoms/cell      =            6
     number of atomic types    =            2
     number of electrons       =        92.00
     number of Kohn-Sham states=           55
     kinetic-energy cutoff     =      80.0000  Ry
     charge density cutoff     =     640.0000  Ry
     scf convergence threshold =      1.0E-07
     mixing beta               =       0.1000
     number of iterations used =           12  local-TF  mixing
     Exchange-correlation= VDW-DF2-B86R
                           (   1   4  26   0   2   0   0)

     celldm(1)=   6.198302  celldm(2)=   0.000000  celldm(3)=  15.243902
     celldm(4)=   0.000000  celldm(5)=   0.000000  celldm(6)=   0.000000

     crystal axes: (cart. coord. in units of alat)
               a(1) = (   1.000000   0.000000   0.000000 )  
               a(2) = (  -0.500000   0.866025   0.000000 )  
               a(3) = (   0.000000   0.000000  15.243902 )  

     reciprocal axes: (cart. coord. in units 2 pi/alat)
               b(1) = (  1.000000  0.577350 -0.000000 )  
               b(2) = (  0.000000  1.154701  0.000000 )  
               b(3) = (  0.000000 -0.000000  0.065600 )  


     PseudoPot. # 1 for W  read from file:
     ./pseudo/W.pbe-spn-kjpaw_psl.1.0.0.UPF
     MD5 check sum: 03c3df5b60893f488392c7401945500a
     Pseudo is Projector augmented-wave + core cor, Zval = 14.0
     Generated using &quot;atomic&quot; code by A. Dal Corso  v.6.2.2
     Shape of augmentation charge: PSQ
     Using radial grid of 1273 points,  6 beta functions with: 
                l(1) =   0
                l(2) =   0
                l(3) =   1
                l(4) =   1
                l(5) =   2
                l(6) =   2
     Q(r) pseudized with 0 coefficients 


     PseudoPot. # 2 for Se read from file:
     ./pseudo/Se.pbe-dn-kjpaw_psl.1.0.0.UPF
     MD5 check sum: ac240dd2bae32a30e0bf3a38df9c8785
     Pseudo is Projector augmented-wave + core cor, Zval = 16.0
     Generated using &quot;atomic&quot; code by A. Dal Corso  v.6.3
     Shape of augmentation charge: PSQ
     Using radial grid of 1211 points,  6 beta functions with: 
                l(1) =   0
                l(2) =   0
                l(3) =   1
                l(4) =   1
                l(5) =   2
                l(6) =   2
     Q(r) pseudized with 0 coefficients 


     atomic species   valence    mass     pseudopotential
     W                14.00   183.84000     W ( 1.00)
     Se               16.00    78.96000     Se( 1.00)

      6 Sym. Ops. (no inversion) found



   Cartesian axes

     site n.     atom                  positions (alat units)
         1        Se     tau(   1) = (  -0.0000005   0.5773506   6.1149390  )
         2        W      tau(   2) = (   0.0000000   0.0000000   6.6383232  )
         3        Se     tau(   3) = (   0.5000005   0.2886748   7.1618445  )
         4        Se     tau(   4) = (  -0.0000005   0.5773506   8.0816311  )
         5        W      tau(   5) = (   0.5000005   0.2886748   8.6048780  )
         6        Se     tau(   6) = (   0.0000000   0.0000000   9.1289634  )

     number of k points=    30  Methfessel-Paxton smearing, width (Ry)=  0.0200
                       cart. coord. in units 2pi/alat
        k(    1) = (   0.0000000   0.0000000   0.0000000), wk =   0.0078125
        k(    2) = (   0.0000000   0.0721688   0.0000000), wk =   0.0468750
        k(    3) = (   0.0000000   0.1443376   0.0000000), wk =   0.0468750
        k(    4) = (   0.0000000   0.2165064   0.0000000), wk =   0.0468750
        k(    5) = (   0.0000000   0.2886751   0.0000000), wk =   0.0468750
        k(    6) = (   0.0000000   0.3608439   0.0000000), wk =   0.0468750
        k(    7) = (   0.0000000   0.4330127   0.0000000), wk =   0.0468750
        k(    8) = (   0.0000000   0.5051815   0.0000000), wk =   0.0468750
        k(    9) = (   0.0000000  -0.5773503   0.0000000), wk =   0.0234375
        k(   10) = (   0.0625000   0.1082532   0.0000000), wk =   0.0468750
        k(   11) = (   0.0625000   0.1804220   0.0000000), wk =   0.0937500
        k(   12) = (   0.0625000   0.2525907   0.0000000), wk =   0.0937500
        k(   13) = (   0.0625000   0.3247595   0.0000000), wk =   0.0937500
        k(   14) = (   0.0625000   0.3969283   0.0000000), wk =   0.0937500
        k(   15) = (   0.0625000   0.4690971   0.0000000), wk =   0.0937500
        k(   16) = (   0.0625000   0.5412659   0.0000000), wk =   0.0937500
        k(   17) = (   0.1250000   0.2165064   0.0000000), wk =   0.0468750
        k(   18) = (   0.1250000   0.2886751   0.0000000), wk =   0.0937500
        k(   19) = (   0.1250000   0.3608439   0.0000000), wk =   0.0937500
        k(   20) = (   0.1250000   0.4330127   0.0000000), wk =   0.0937500
        k(   21) = (   0.1250000   0.5051815   0.0000000), wk =   0.0937500
        k(   22) = (   0.1250000   0.5773503   0.0000000), wk =   0.0468750
        k(   23) = (   0.1875000   0.3247595   0.0000000), wk =   0.0468750
        k(   24) = (   0.1875000   0.3969283   0.0000000), wk =   0.0937500
        k(   25) = (   0.1875000   0.4690971   0.0000000), wk =   0.0937500
        k(   26) = (   0.1875000   0.5412659   0.0000000), wk =   0.0937500
        k(   27) = (   0.2500000   0.4330127   0.0000000), wk =   0.0468750
        k(   28) = (   0.2500000   0.5051815   0.0000000), wk =   0.0937500
        k(   29) = (   0.2500000   0.5773503   0.0000000), wk =   0.0468750
        k(   30) = (   0.3125000   0.5412659   0.0000000), wk =   0.0468750

     Dense  grid:   858263 G-vectors     FFT dimensions: (  50,  50, 768)

     Smooth grid:   304337 G-vectors     FFT dimensions: (  36,  36, 540)

     Estimated max dynamical RAM per process >     176.97 MB

     Estimated total dynamical RAM >       4.15 GB

     Initial potential from superposition of free atoms

     starting charge      91.9986, renormalised to      92.0000

     negative rho (up, down):  1.862E-04 0.000E+00


     %%%%%%%%%%%%%%%%%%%%%%%%%%%%%%%%%%%%%%%%%%%%%%%%%%%%%%%%%%%%%%%%%%%%%%%%
     %                                                                      %
     % You are using vdW-DF, which was implemented by the Thonhauser group. %
     % Please cite the following two papers that made this development      %
     % possible and the two reviews that describe the various versions:     %
     %                                                                      %
     %   T. Thonhauser et al., PRL 115, 136402 (2015).                      %
     %   T. Thonhauser et al., PRB 76, 125112 (2007).                       %
     %   K. Berland et al., Rep. Prog. Phys. 78, 066501 (2015).             %
     %   D.C. Langreth et al., J. Phys.: Condens. Matter 21, 084203 (2009). %
     %                                                                      %
     % If you are calculating stress with vdW-DF, please also cite:         %
     %                                                                      %
     %   R. Sabatini et al., J. Phys.: Condens. Matter 24, 424209 (2012).   %
     %                                                                      %
     %%%%%%%%%%%%%%%%%%%%%%%%%%%%%%%%%%%%%%%%%%%%%%%%%%%%%%%%%%%%%%%%%%%%%%%%

     %%%%%%%%%%%%%%%%%%%%%%%%%%%%%%%%%%%%%%%%%%%%%%%%%%%%%%%%%%%%%%%%%%%%%%%%
     %                                                                      %
     %  vdW-DF NEWS:                                                        %
     %                                                                      %
     %  * vdW-DF3 is now available. DOI: 10.1021/acs.jctc.0c00471           %
     %    use with input_dft = 'vdW-DF3-opt1' or 'vdW-DF3-opt2'             %
     %                                                                      %
     %  * Unscreened and range-separated hybrid vdW-DF-cx functionals       %
     %    DOI: 10.1063/1.4986522 and 10.1088/1361-648X/ac2ad2               %
     %    use with input_dft = 'vdW-DF-cx0'    and 'vdW-DF-ahcx'            %
     %  * Unscreened and range-separated hybrid vdW-DF2-b86r functionals    %
     %    DOI: 10.1063/1.4986522 and DOI: 10.1103/PhysRevX.12.041003        %
     %    use with input_dft = 'vdW-DF2-br0' and 'vdW-DF2-ahbr'             %
     %                                                                      %
     %%%%%%%%%%%%%%%%%%%%%%%%%%%%%%%%%%%%%%%%%%%%%%%%%%%%%%%%%%%%%%%%%%%%%%%%


     Starting wfcs are   62 randomized atomic wfcs
     Checking if some PAW data can be deallocated... 

     total cpu time spent up to now is       12.9 secs

     per-process dynamical memory:    81.7 Mb

     Self-consistent Calculation

     iteration #  1     ecut=    80.00 Ry     beta= 0.10
     Davidson diagonalization with overlap
     ethr =  1.00E-02,  avg # of iterations =  3.9

     Threshold (ethr) on eigenvalues was too large:
     Diagonalizing with lowered threshold

     Davidson diagonalization with overlap
     ethr =  1.03E-04,  avg # of iterations =  5.6

     negative rho (up, down):  1.030E-04 0.000E+00

     total cpu time spent up to now is       55.6 secs

     total energy              =   -3114.00709664 Ry
     estimated scf accuracy    <       0.12264523 Ry

     iteration #  2     ecut=    80.00 Ry     beta= 0.10
     Davidson diagonalization with overlap
     ethr =  1.33E-04,  avg # of iterations =  1.0

     negative rho (up, down):  1.180E-04 0.000E+00

     total cpu time spent up to now is       71.1 secs

     total energy              =   -3113.96278052 Ry
     estimated scf accuracy    <       0.11043046 Ry

     iteration #  3     ecut=    80.00 Ry     beta= 0.10
     Davidson diagonalization with overlap
     ethr =  1.20E-04,  avg # of iterations =  3.6

     negative rho (up, down):  5.215E-05 0.000E+00

     total cpu time spent up to now is       91.5 secs

     total energy              =   -3113.97801537 Ry
     estimated scf accuracy    <       0.02002871 Ry

     iteration #  4     ecut=    80.00 Ry     beta= 0.10
     Davidson diagonalization with overlap
     ethr =  2.18E-05,  avg # of iterations =  2.4

     negative rho (up, down):  1.082E-05 0.000E+00

     total cpu time spent up to now is      110.5 secs

     total energy              =   -3113.97494388 Ry
     estimated scf accuracy    <       0.01738620 Ry

     iteration #  5     ecut=    80.00 Ry     beta= 0.10
     Davidson diagonalization with overlap
     ethr =  1.89E-05,  avg # of iterations =  2.6

     negative rho (up, down):  7.916E-06 0.000E+00

     total cpu time spent up to now is      129.9 secs

     total energy              =   -3113.97626676 Ry
     estimated scf accuracy    <       0.00296534 Ry

     iteration #  6     ecut=    80.00 Ry     beta= 0.10
     Davidson diagonalization with overlap
     ethr =  3.22E-06,  avg # of iterations =  5.5

     negative rho (up, down):  4.357E-07 0.000E+00

     total cpu time spent up to now is      148.9 secs

     total energy              =   -3113.97559220 Ry
     estimated scf accuracy    <       0.00265708 Ry

     iteration #  7     ecut=    80.00 Ry     beta= 0.10
     Davidson diagonalization with overlap
     ethr =  2.89E-06,  avg # of iterations =  7.6

     negative rho (up, down):  3.927E-07 0.000E+00

     total cpu time spent up to now is      169.8 secs

     total energy              =   -3113.97569835 Ry
     estimated scf accuracy    <       0.00186938 Ry

     iteration #  8     ecut=    80.00 Ry     beta= 0.10
     Davidson diagonalization with overlap
     ethr =  2.03E-06,  avg # of iterations =  1.4

     negative rho (up, down):  4.940E-07 0.000E+00

     total cpu time spent up to now is      186.3 secs

     total energy              =   -3113.97551055 Ry
     estimated scf accuracy    <       0.00119753 Ry

     iteration #  9     ecut=    80.00 Ry     beta= 0.10
     Davidson diagonalization with overlap
     ethr =  1.30E-06,  avg # of iterations =  5.0

     negative rho (up, down):  4.991E-07 0.000E+00

     total cpu time spent up to now is      205.9 secs

     total energy              =   -3113.97557628 Ry
     estimated scf accuracy    <       0.00054996 Ry

     iteration # 10     ecut=    80.00 Ry     beta= 0.10
     Davidson diagonalization with overlap
     ethr =  5.98E-07,  avg # of iterations =  1.4

     negative rho (up, down):  5.767E-08 0.000E+00

     total cpu time spent up to now is      222.6 secs

     total energy              =   -3113.97555111 Ry
     estimated scf accuracy    <       0.00049119 Ry

     iteration # 11     ecut=    80.00 Ry     beta= 0.10
     Davidson diagonalization with overlap
     ethr =  5.34E-07,  avg # of iterations =  1.4

     negative rho (up, down):  1.266E-06 0.000E+00

     total cpu time spent up to now is      239.2 secs

     total energy              =   -3113.97552006 Ry
     estimated scf accuracy    <       0.00039253 Ry

     iteration # 12     ecut=    80.00 Ry     beta= 0.10
     Davidson diagonalization with overlap
     ethr =  4.27E-07,  avg # of iterations =  4.7

     negative rho (up, down):  2.474E-06 0.000E+00

     total cpu time spent up to now is      257.3 secs

     total energy              =   -3113.97553727 Ry
     estimated scf accuracy    <       0.00032608 Ry

     iteration # 13     ecut=    80.00 Ry     beta= 0.10
     Davidson diagonalization with overlap
     ethr =  3.54E-07,  avg # of iterations =  1.0

     negative rho (up, down):  2.271E-03 0.000E+00

     total cpu time spent up to now is      273.0 secs

     total energy              =   -3113.97549990 Ry
     estimated scf accuracy    <       0.00038559 Ry

     iteration # 14     ecut=    80.00 Ry     beta= 0.10
     Davidson diagonalization with overlap
     ethr =  3.54E-07,  avg # of iterations =  3.7

     negative rho (up, down):  1.622E-03 0.000E+00

     total cpu time spent up to now is      291.1 secs

     total energy              =   -3113.97550404 Ry
     estimated scf accuracy    <       0.00022771 Ry

     iteration # 15     ecut=    80.00 Ry     beta= 0.10
     Davidson diagonalization with overlap
     ethr =  2.48E-07,  avg # of iterations =  3.0

     negative rho (up, down):  3.110E-03 0.000E+00

     total cpu time spent up to now is      308.5 secs

     total energy              =   -3113.97547591 Ry
     estimated scf accuracy    <       0.00020650 Ry

     iteration # 16     ecut=    80.00 Ry     beta= 0.10
     Davidson diagonalization with overlap
     ethr =  2.24E-07,  avg # of iterations =  4.6

     negative rho (up, down):  3.204E-03 0.000E+00

     total cpu time spent up to now is      328.7 secs

     total energy              =   -3113.97548859 Ry
     estimated scf accuracy    <       0.00024546 Ry

     iteration # 17     ecut=    80.00 Ry     beta= 0.10
     Davidson diagonalization with overlap
     ethr =  2.24E-07,  avg # of iterations =  1.0

     negative rho (up, down):  3.035E-03 0.000E+00

     total cpu time spent up to now is      344.5 secs

     total energy              =   -3113.97544020 Ry
     estimated scf accuracy    <       0.00023951 Ry

     iteration # 18     ecut=    80.00 Ry     beta= 0.10
     Davidson diagonalization with overlap
     ethr =  2.24E-07,  avg # of iterations =  2.0

     negative rho (up, down):  4.377E-03 0.000E+00

     total cpu time spent up to now is      363.3 secs

     total energy              =   -3113.97545030 Ry
     estimated scf accuracy    <       0.00022536 Ry

     iteration # 19     ecut=    80.00 Ry     beta= 0.10
     Davidson diagonalization with overlap
     ethr =  2.24E-07,  avg # of iterations =  3.8

     negative rho (up, down):  4.110E-03 0.000E+00

     total cpu time spent up to now is      381.0 secs

     total energy              =   -3113.97542976 Ry
     estimated scf accuracy    <       0.00019195 Ry

     iteration # 20     ecut=    80.00 Ry     beta= 0.10
     Davidson diagonalization with overlap
     ethr =  2.09E-07,  avg # of iterations =  2.9

     negative rho (up, down):  3.762E-03 0.000E+00

     total cpu time spent up to now is      399.7 secs

     total energy              =   -3113.97538927 Ry
     estimated scf accuracy    <       0.00014540 Ry

     iteration # 21     ecut=    80.00 Ry     beta= 0.10
     Davidson diagonalization with overlap
     ethr =  1.58E-07,  avg # of iterations =  3.6

     negative rho (up, down):  2.903E-03 0.000E+00

     total cpu time spent up to now is      417.6 secs

     total energy              =   -3113.97542227 Ry
     estimated scf accuracy    <       0.00007229 Ry

     iteration # 22     ecut=    80.00 Ry     beta= 0.10
     Davidson diagonalization with overlap
     ethr =  7.86E-08,  avg # of iterations =  4.6

     negative rho (up, down):  2.942E-03 0.000E+00

     total cpu time spent up to now is      438.1 secs

     total energy              =   -3113.97541952 Ry
     estimated scf accuracy    <       0.00014029 Ry

     iteration # 23     ecut=    80.00 Ry     beta= 0.10
     Davidson diagonalization with overlap
     ethr =  7.86E-08,  avg # of iterations =  4.5

     negative rho (up, down):  1.703E-03 0.000E+00

     total cpu time spent up to now is      457.3 secs

     total energy              =   -3113.97540661 Ry
     estimated scf accuracy    <       0.00004368 Ry

     iteration # 24     ecut=    80.00 Ry     beta= 0.10
     Davidson diagonalization with overlap
     ethr =  4.75E-08,  avg # of iterations =  5.2

     negative rho (up, down):  1.527E-03 0.000E+00

     total cpu time spent up to now is      477.1 secs

     total energy              =   -3113.97542863 Ry
     estimated scf accuracy    <       0.00001864 Ry

     iteration # 25     ecut=    80.00 Ry     beta= 0.10
     Davidson diagonalization with overlap
     ethr =  2.03E-08,  avg # of iterations =  4.3

     negative rho (up, down):  1.196E-03 0.000E+00

     total cpu time spent up to now is      496.8 secs

     total energy              =   -3113.97542900 Ry
     estimated scf accuracy    <       0.00002118 Ry

     iteration # 26     ecut=    80.00 Ry     beta= 0.10
     Davidson diagonalization with overlap
     ethr =  2.03E-08,  avg # of iterations =  2.0

     negative rho (up, down):  9.964E-04 0.000E+00

     total cpu time spent up to now is      513.3 secs

     total energy              =   -3113.97543140 Ry
     estimated scf accuracy    <       0.00001254 Ry

     iteration # 27     ecut=    80.00 Ry     beta= 0.10
     Davidson diagonalization with overlap
     ethr =  1.36E-08,  avg # of iterations =  3.6

     negative rho (up, down):  7.285E-04 0.000E+00

     total cpu time spent up to now is      531.8 secs

     total energy              =   -3113.97543427 Ry
     estimated scf accuracy    <       0.00000146 Ry

     iteration # 28     ecut=    80.00 Ry     beta= 0.10
     Davidson diagonalization with overlap
     ethr =  1.58E-09,  avg # of iterations =  3.2

     negative rho (up, down):  5.904E-04 0.000E+00

     total cpu time spent up to now is      551.6 secs

     total energy              =   -3113.97543502 Ry
     estimated scf accuracy    <       0.00000118 Ry

     iteration # 29     ecut=    80.00 Ry     beta= 0.10
     Davidson diagonalization with overlap
     ethr =  1.28E-09,  avg # of iterations =  1.4

     negative rho (up, down):  4.064E-04 0.000E+00

     total cpu time spent up to now is      567.8 secs

     total energy              =   -3113.97543383 Ry
     estimated scf accuracy    <       0.00000074 Ry

     iteration # 30     ecut=    80.00 Ry     beta= 0.10
     Davidson diagonalization with overlap
     ethr =  8.05E-10,  avg # of iterations =  3.9

     negative rho (up, down):  2.274E-04 0.000E+00

     total cpu time spent up to now is      586.2 secs

     total energy              =   -3113.97543296 Ry
     estimated scf accuracy    <       0.00000020 Ry

     iteration # 31     ecut=    80.00 Ry     beta= 0.10
     Davidson diagonalization with overlap
     ethr =  2.22E-10,  avg # of iterations =  2.2

     negative rho (up, down):  1.844E-04 0.000E+00

     total cpu time spent up to now is      605.7 secs

     End of self-consistent calculation

          k = 0.0000 0.0000 0.0000 ( 38015 PWs)   bands (ev):

   -74.8863 -74.8701 -48.1862 -48.1862 -48.1717 -48.1717 -48.1685 -48.1685
   -48.1626 -48.1626 -48.1512 -48.1486 -48.1486 -48.1427 -48.1427 -48.1396
   -48.1396 -48.1386 -48.1249 -48.1108 -48.1108 -48.0963 -39.0801 -39.0733
   -39.0454 -39.0454 -39.0230 -39.0230 -15.6424 -15.4620 -14.5932 -14.3470
    -7.3587  -6.7205  -3.9351  -3.3737  -3.3737  -3.3427  -3.3427  -2.7126
    -1.5072  -0.7654  -0.7020  -0.7020  -0.6810  -0.6810   0.1324   0.1324
     0.2242   0.2242   3.3145   3.3146   3.4290   3.4458   3.4458

          k = 0.0000 0.0722 0.0000 ( 37975 PWs)   bands (ev):

   -74.8859 -74.8697 -48.1862 -48.1861 -48.1717 -48.1715 -48.1685 -48.1683
   -48.1627 -48.1626 -48.1511 -48.1487 -48.1486 -48.1427 -48.1426 -48.1396
   -48.1396 -48.1385 -48.1248 -48.1109 -48.1108 -48.0962 -39.0783 -39.0715
   -39.0545 -39.0476 -39.0321 -39.0251 -15.5816 -15.4011 -14.5626 -14.3205
    -7.2777  -6.6403  -4.1907  -3.6556  -3.3400  -3.3080  -3.1626  -2.5178
    -1.5375  -1.1788  -0.9981  -0.9423  -0.9081  -0.7669   0.1797   0.2751
     0.3419   0.4263   2.9951   3.1206   3.2643   3.4137   3.5733

          k = 0.0000 0.1443 0.0000 ( 37895 PWs)   bands (ev):

   -74.8848 -74.8685 -48.1862 -48.1855 -48.1717 -48.1710 -48.1685 -48.1678
   -48.1629 -48.1627 -48.1509 -48.1488 -48.1487 -48.1427 -48.1420 -48.1398
   -48.1397 -48.1383 -48.1246 -48.1111 -48.1109 -48.0959 -39.0804 -39.0730
   -39.0664 -39.0578 -39.0536 -39.0312 -15.4033 -15.2227 -14.4730 -14.2432
    -7.0424  -6.4089  -4.6147  -4.1383  -3.2604  -3.2246  -2.9604  -2.4294
    -2.0671  -2.0025  -1.3367  -1.3248  -1.2876  -0.8894   0.1396   0.4311
     0.6440   0.7376   2.4884   2.5986   3.1734   3.3542   3.8653

          k = 0.0000 0.2165 0.0000 ( 37851 PWs)   bands (ev):

   -74.8831 -74.8668 -48.1862 -48.1848 -48.1717 -48.1702 -48.1685 -48.1670
   -48.1632 -48.1628 -48.1505 -48.1491 -48.1487 -48.1427 -48.1412 -48.1401
   -48.1398 -48.1379 -48.1242 -48.1114 -48.1110 -48.0956 -39.1187 -39.0962
   -39.0653 -39.0626 -39.0586 -39.0402 -15.1206 -14.9410 -14.3307 -14.1214
    -6.6814  -6.0642  -5.0122  -4.5923  -3.3623  -3.2976  -3.2040  -3.1604
    -2.6688  -2.2091  -1.6374  -1.5757  -1.4304  -1.1610   0.1330   0.5189
     0.8402   0.9504   2.1456   2.4878   3.1342   3.3428   4.2623

          k = 0.0000 0.2887 0.0000 ( 37919 PWs)   bands (ev):

   -74.8811 -74.8648 -48.1863 -48.1839 -48.1717 -48.1694 -48.1685 -48.1662
   -48.1635 -48.1629 -48.1502 -48.1494 -48.1488 -48.1427 -48.1405 -48.1404
   -48.1399 -48.1374 -48.1238 -48.1117 -48.1111 -48.0951 -39.1637 -39.1411
   -39.0733 -39.0562 -39.0508 -39.0494 -14.7596 -14.5839 -14.1449 -13.9637
    -6.2825  -5.7427  -5.2849  -4.9146  -4.4142  -4.3356  -3.2575  -3.2038
    -2.8169  -2.4488  -1.7467  -1.6993  -1.6672  -1.5468   0.2448   0.6756
     0.9474   1.0596   2.2229   2.8033   3.1644   3.4032   4.7491

          k = 0.0000 0.3608 0.0000 ( 37933 PWs)   bands (ev):

   -74.8791 -74.8628 -48.1863 -48.1831 -48.1717 -48.1685 -48.1685 -48.1654
   -48.1639 -48.1630 -48.1501 -48.1494 -48.1489 -48.1427 -48.1408 -48.1400
   -48.1395 -48.1370 -48.1233 -48.1120 -48.1112 -48.0947 -39.2082 -39.1857
   -39.0839 -39.0614 -39.0470 -39.0403 -14.3705 -14.2064 -13.9199 -13.7718
    -6.1197  -5.9009  -5.4911  -5.2852  -5.0827  -4.6953  -3.4122  -3.3508
    -3.1313  -2.8378  -2.0103  -1.8534  -1.7055  -1.5970   0.5660   0.9837
     1.0576   1.1480   2.6217   3.2199   3.2791   3.4928   4.7384

          k = 0.0000 0.4330 0.0000 ( 37998 PWs)   bands (ev):

   -74.8773 -74.8611 -48.1863 -48.1824 -48.1718 -48.1686 -48.1678 -48.1647
   -48.1641 -48.1630 -48.1502 -48.1491 -48.1489 -48.1428 -48.1411 -48.1401
   -48.1388 -48.1366 -48.1230 -48.1123 -48.1113 -48.0943 -39.2458 -39.2231
   -39.0928 -39.0704 -39.0392 -39.0326 -14.0462 -13.9125 -13.6454 -13.5252
    -6.6160  -6.5078  -5.8571  -5.5101  -4.8600  -4.5938  -3.5799  -3.5140
    -3.4312  -3.0998  -2.1953  -2.0558  -1.6326  -1.4899   1.0417   1.2214
     1.2764   1.3973   3.1039   3.2636   3.5324   3.5684   4.4157

          k = 0.0000 0.5052 0.0000 ( 38048 PWs)   bands (ev):

   -74.8762 -74.8600 -48.1864 -48.1819 -48.1718 -48.1686 -48.1673 -48.1643
   -48.1642 -48.1631 -48.1504 -48.1489 -48.1489 -48.1427 -48.1413 -48.1401
   -48.1383 -48.1364 -48.1227 -48.1125 -48.1113 -48.0941 -39.2707 -39.2480
   -39.0988 -39.0763 -39.0340 -39.0274 -13.8571 -13.7635 -13.3704 -13.2759
    -7.1708  -7.0746  -5.8355  -5.5709  -4.9051  -4.6938  -3.6983  -3.6300
    -3.4073  -3.0226  -2.2986  -2.1982  -1.5880  -1.4193   1.3893   1.4192
     1.5448   1.7985   3.2152   3.2867   3.6068   3.6136   4.3545

          k = 0.0000-0.5774 0.0000 ( 38024 PWs)   bands (ev):

   -74.8758 -74.8596 -48.1864 -48.1817 -48.1718 -48.1686 -48.1671 -48.1644
   -48.1641 -48.1631 -48.1505 -48.1490 -48.1488 -48.1427 -48.1413 -48.1401
   -48.1381 -48.1363 -48.1226 -48.1126 -48.1114 -48.0940 -39.2794 -39.2568
   -39.1009 -39.0784 -39.0322 -39.0255 -13.7950 -13.7208 -13.2491 -13.1726
    -7.3748  -7.2964  -5.7417  -5.6229  -5.0047  -4.7984  -3.7401  -3.6712
    -3.2849  -2.9411  -2.3461  -2.2564  -1.5750  -1.3970   1.4597   1.4866
     1.8052   1.9570   3.2932   3.2937   3.5561   3.6281   4.0515

          k = 0.0625 0.1083 0.0000 ( 37895 PWs)   bands (ev):

   -74.8851 -74.8689 -48.1862 -48.1857 -48.1717 -48.1712 -48.1684 -48.1680
   -48.1628 -48.1627 -48.1510 -48.1488 -48.1487 -48.1427 -48.1422 -48.1398
   -48.1396 -48.1383 -48.1246 -48.1110 -48.1109 -48.0960 -39.0748 -39.0717
   -39.0680 -39.0519 -39.0492 -39.0295 -15.4620 -15.2814 -14.5025 -14.2686
    -7.1192  -6.4840  -4.4982  -4.0044  -3.2903  -3.2582  -2.9932  -2.3788
    -1.8008  -1.7799  -1.3310  -1.3236  -1.2123  -0.7664   0.2215   0.4527
     0.4985   0.5805   2.7193   2.7497   3.1502   3.2726   3.7808

          k = 0.0625 0.1804 0.0000 ( 37885 PWs)   bands (ev):

   -74.8837 -74.8675 -48.1862 -48.1851 -48.1717 -48.1706 -48.1684 -48.1674
   -48.1631 -48.1628 -48.1507 -48.1490 -48.1487 -48.1427 -48.1416 -48.1400
   -48.1397 -48.1380 -48.1243 -48.1112 -48.1109 -48.0957 -39.1030 -39.0806
   -39.0685 -39.0616 -39.0600 -39.0377 -15.2311 -15.0509 -14.3867 -14.1692
    -6.8178  -6.1907  -4.8761  -4.4347  -3.2908  -3.2515  -2.9704  -2.7521
    -2.5310  -2.3272  -1.6899  -1.6401  -1.2611  -0.8685   0.2601   0.4637
     0.6673   0.7491   2.4208   2.5970   2.9855   3.1470   4.1164

          k = 0.0625 0.2526 0.0000 ( 37916 PWs)   bands (ev):

   -74.8819 -74.8656 -48.1862 -48.1843 -48.1717 -48.1698 -48.1684 -48.1666
   -48.1634 -48.1629 -48.1503 -48.1493 -48.1488 -48.1427 -48.1408 -48.1403
   -48.1398 -48.1376 -48.1239 -48.1115 -48.1111 -48.0953 -39.1437 -39.1212
   -39.0711 -39.0597 -39.0535 -39.0482 -14.9075 -14.7296 -14.2234 -14.0304
    -6.4202  -5.8265  -5.1984  -4.8077  -3.9607  -3.8951  -3.2320  -3.2006
    -2.7397  -2.4689  -1.9470  -1.9059  -1.2996  -1.0682   0.1898   0.4368
     0.8473   0.9994   2.3172   2.6141   3.0429   3.1924   4.5607

          k = 0.0625 0.3248 0.0000 ( 37964 PWs)   bands (ev):

   -74.8799 -74.8636 -48.1862 -48.1835 -48.1716 -48.1689 -48.1685 -48.1658
   -48.1637 -48.1630 -48.1500 -48.1494 -48.1489 -48.1427 -48.1406 -48.1400
   -48.1399 -48.1372 -48.1235 -48.1119 -48.1112 -48.0949 -39.1875 -39.1649
   -39.0827 -39.0603 -39.0507 -39.0439 -14.5266 -14.3554 -14.0213 -13.8599
    -6.0895  -5.6716  -5.3455  -5.0715  -4.8895  -4.7001  -3.4672  -3.4323
    -2.8177  -2.6404  -2.2736  -2.2364  -1.3305  -1.1954   0.2677   0.5700
     1.0970   1.2242   2.4428   2.7253   3.2475   3.4215   5.0163

          k = 0.0625 0.3969 0.0000 ( 37981 PWs)   bands (ev):

   -74.8780 -74.8618 -48.1862 -48.1827 -48.1716 -48.1685 -48.1681 -48.1650
   -48.1640 -48.1630 -48.1501 -48.1493 -48.1489 -48.1426 -48.1410 -48.1401
   -48.1392 -48.1368 -48.1231 -48.1122 -48.1113 -48.0945 -39.2275 -39.2049
   -39.0934 -39.0709 -39.0422 -39.0355 -14.1589 -14.0071 -13.7772 -13.6482
    -6.2343  -6.1527  -5.7438  -5.4295  -4.9673  -4.5907  -3.7305  -3.6638
    -3.0617  -2.9222  -2.5116  -2.4528  -1.3008  -1.2346   0.5627   0.8310
     1.3634   1.4784   2.7118   2.8759   3.4474   3.7069   4.6760

          k = 0.0625 0.4691 0.0000 ( 38057 PWs)   bands (ev):

   -74.8766 -74.8604 -48.1862 -48.1822 -48.1717 -48.1685 -48.1676 -48.1645
   -48.1642 -48.1631 -48.1503 -48.1491 -48.1489 -48.1426 -48.1412 -48.1401
   -48.1386 -48.1365 -48.1228 -48.1124 -48.1114 -48.0942 -39.2580 -39.2354
   -39.1016 -39.0791 -39.0357 -39.0291 -13.9034 -13.7912 -13.4914 -13.3866
    -6.8777  -6.7719  -5.8488  -5.5399  -4.7984  -4.5948  -3.8659  -3.7700
    -3.2479  -3.0497  -2.6143  -2.5536  -1.2892  -1.2690   0.9709   1.1535
     1.6260   1.7480   2.8919   3.0681   3.4969   3.7424   4.6022

          k = 0.0625 0.5413 0.0000 ( 38034 PWs)   bands (ev):

   -74.8758 -74.8596 -48.1862 -48.1818 -48.1716 -48.1685 -48.1672 -48.1643
   -48.1642 -48.1631 -48.1504 -48.1490 -48.1488 -48.1426 -48.1413 -48.1402
   -48.1382 -48.1363 -48.1226 -48.1125 -48.1114 -48.0940 -39.2744 -39.2518
   -39.1060 -39.0836 -39.0322 -39.0256 -13.7813 -13.7030 -13.2766 -13.1975
    -7.2656  -7.1820  -5.7640  -5.5927  -4.9399  -4.7262  -3.8454  -3.8172
    -3.2156  -2.9648  -2.6584  -2.6177  -1.3230  -1.2910   1.3290   1.4026
     1.7834   1.9078   2.9883   3.2574   3.3586   3.6946   4.3577

          k = 0.1250 0.2165 0.0000 ( 37933 PWs)   bands (ev):

   -74.8822 -74.8659 -48.1861 -48.1845 -48.1716 -48.1700 -48.1684 -48.1668
   -48.1633 -48.1629 -48.1504 -48.1492 -48.1488 -48.1426 -48.1410 -48.1403
   -48.1398 -48.1377 -48.1240 -48.1115 -48.1111 -48.0954 -39.1355 -39.1130
   -39.0718 -39.0608 -39.0551 -39.0484 -14.9582 -14.7795 -14.2503 -14.0533
    -6.4688  -5.8594  -5.1560  -4.7573  -3.7877  -3.7324  -3.1260  -2.9357
    -2.9018  -2.8357  -1.9911  -1.8620  -1.1682  -0.8219   0.2560   0.2901
     0.6314   0.9883   2.5547   2.6969   2.7370   2.9989   4.4987

          k = 0.1250 0.2887 0.0000 ( 37936 PWs)   bands (ev):

   -74.8803 -74.8641 -48.1860 -48.1838 -48.1715 -48.1693 -48.1683 -48.1661
   -48.1636 -48.1630 -48.1501 -48.1494 -48.1489 -48.1425 -48.1405 -48.1403
   -48.1400 -48.1373 -48.1236 -48.1118 -48.1112 -48.0950 -39.1728 -39.1502
   -39.0855 -39.0632 -39.0526 -39.0457 -14.6091 -14.4347 -14.0738 -13.9055
    -6.0747  -5.5413  -5.3455  -5.0053  -4.5755  -4.5358  -3.5136  -3.3940
    -3.0235  -2.9478  -2.2535  -2.1877  -1.0516  -0.7934   0.0212   0.2312
     1.0127   1.3022   2.3402   2.4183   3.0411   3.4016   4.9846

          k = 0.1250 0.3608 0.0000 ( 38000 PWs)   bands (ev):

   -74.8784 -74.8622 -48.1860 -48.1831 -48.1714 -48.1686 -48.1682 -48.1655
   -48.1639 -48.1631 -48.1500 -48.1494 -48.1489 -48.1424 -48.1408 -48.1401
   -48.1396 -48.1369 -48.1232 -48.1121 -48.1113 -48.0946 -39.2096 -39.1870
   -39.0997 -39.0772 -39.0442 -39.0374 -14.2316 -14.0678 -13.8636 -13.7307
    -5.9264  -5.7525  -5.4973  -5.3238  -5.0972  -4.6497  -3.8861  -3.7878
    -3.1463  -3.0454  -2.7065  -2.6032  -0.9497  -0.7736   0.0917   0.3861
     1.4152   1.5889   2.2629   2.3647   3.3794   3.7852   5.2160

          k = 0.1250 0.4330 0.0000 ( 38048 PWs)   bands (ev):

   -74.8769 -74.8606 -48.1859 -48.1826 -48.1713 -48.1682 -48.1680 -48.1649
   -48.1641 -48.1632 -48.1502 -48.1492 -48.1489 -48.1423 -48.1411 -48.1402
   -48.1390 -48.1366 -48.1229 -48.1123 -48.1114 -48.0943 -39.2404 -39.2178
   -39.1118 -39.0893 -39.0370 -39.0303 -13.9186 -13.7859 -13.6079 -13.5031
    -6.4431  -6.3442  -5.7970  -5.4847  -4.7602  -4.4659  -4.1416  -3.9903
    -3.2880  -3.1820  -3.0343  -2.9815  -0.9410  -0.8299   0.4398   0.7106
     1.7240   1.8125   2.3258   2.5021   3.6309   3.9283   4.9829

          k = 0.1250 0.5052 0.0000 ( 38027 PWs)   bands (ev):

   -74.8758 -74.8596 -48.1859 -48.1822 -48.1713 -48.1681 -48.1676 -48.1645
   -48.1643 -48.1632 -48.1503 -48.1492 -48.1488 -48.1422 -48.1412 -48.1403
   -48.1386 -48.1363 -48.1227 -48.1125 -48.1115 -48.0940 -39.2609 -39.2383
   -39.1199 -39.0974 -39.0323 -39.0256 -13.7413 -13.6520 -13.3485 -13.2661
    -6.9573  -6.8670  -5.7701  -5.5529  -4.7653  -4.5611  -4.1383  -3.9892
    -3.3938  -3.2610  -3.1491  -3.0643  -1.0191  -0.9258   0.9200   1.1073
     1.8160   1.8740   2.4808   2.7024   3.5182   3.9007   4.8982

          k = 0.1250 0.5774 0.0000 ( 37968 PWs)   bands (ev):

   -74.8754 -74.8592 -48.1858 -48.1820 -48.1712 -48.1681 -48.1674 -48.1644
   -48.1643 -48.1632 -48.1504 -48.1492 -48.1487 -48.1422 -48.1413 -48.1403
   -48.1384 -48.1362 -48.1226 -48.1125 -48.1115 -48.0939 -39.2681 -39.2455
   -39.1227 -39.1002 -39.0306 -39.0239 -13.6833 -13.6145 -13.2350 -13.1697
    -7.1449  -7.0657  -5.6978  -5.6042  -4.8636  -4.6439  -4.0928  -4.0056
    -3.4158  -3.2732  -3.1413  -3.0346  -1.0686  -0.9752   1.2760   1.3177
     1.7088   1.7988   2.6017   2.8014   3.4473   3.7654   4.7692

          k = 0.1875 0.3248 0.0000 ( 37987 PWs)   bands (ev):

   -74.8786 -74.8624 -48.1858 -48.1833 -48.1713 -48.1688 -48.1681 -48.1656
   -48.1638 -48.1631 -48.1500 -48.1494 -48.1489 -48.1423 -48.1408 -48.1401
   -48.1398 -48.1369 -48.1232 -48.1120 -48.1113 -48.0946 -39.2014 -39.1789
   -39.1037 -39.0813 -39.0449 -39.0381 -14.2568 -14.0888 -13.8935 -13.7594
    -5.8123  -5.4887  -5.3777  -5.3067  -5.1389  -4.7130  -3.8984  -3.7776
    -3.4303  -3.3743  -2.5784  -2.5002  -0.7469  -0.5144  -0.1465   0.1378
     1.4055   1.6336   2.0737   2.1501   3.3683   3.8003   5.4690

          k = 0.1875 0.3969 0.0000 ( 38014 PWs)   bands (ev):

   -74.8770 -74.8608 -48.1856 -48.1829 -48.1710 -48.1683 -48.1678 -48.1652
   -48.1640 -48.1632 -48.1501 -48.1493 -48.1489 -48.1420 -48.1410 -48.1403
   -48.1394 -48.1366 -48.1229 -48.1122 -48.1115 -48.0943 -39.2261 -39.2035
   -39.1221 -39.0997 -39.0377 -39.0310 -13.9127 -13.7593 -13.6844 -13.5927
    -6.0150  -5.9533  -5.7396  -5.4449  -4.8668  -4.4308  -4.2387  -4.0951
    -3.7889  -3.7033  -3.0071  -2.8712  -0.5606  -0.3887  -0.0152   0.2642
     1.7286   1.8538   2.0168   2.1034   3.6981   4.0562   5.3809

          k = 0.1875 0.4691 0.0000 ( 38010 PWs)   bands (ev):

   -74.8758 -74.8596 -48.1854 -48.1826 -48.1708 -48.1680 -48.1677 -48.1649
   -48.1642 -48.1633 -48.1502 -48.1493 -48.1488 -48.1418 -48.1411 -48.1404
   -48.1390 -48.1363 -48.1227 -48.1124 -48.1116 -48.0940 -39.2441 -39.2215
   -39.1371 -39.1146 -39.0323 -39.0256 -13.6810 -13.5745 -13.4385 -13.3619
    -6.5301  -6.4532  -5.7413  -5.5252  -4.6389  -4.4375  -4.3247  -4.1260
    -4.0446  -3.9106  -3.2680  -3.1767  -0.6255  -0.4769   0.4276   0.6225
     1.8207   1.8789   2.1136   2.3142   3.7701   4.0520   5.2806

          k = 0.1875 0.5413 0.0000 ( 38010 PWs)   bands (ev):

   -74.8752 -74.8589 -48.1853 -48.1824 -48.1707 -48.1678 -48.1676 -48.1648
   -48.1642 -48.1634 -48.1503 -48.1494 -48.1487 -48.1416 -48.1412 -48.1404
   -48.1388 -48.1362 -48.1225 -48.1124 -48.1117 -48.0939 -39.2535 -39.2309
   -39.1454 -39.1229 -39.0293 -39.0227 -13.5743 -13.5074 -13.2523 -13.1957
    -6.8305  -6.7506  -5.6915  -5.5872  -4.7351  -4.5076  -4.2849  -4.2157
    -4.0798  -3.9839  -3.2944  -3.2468  -0.7280  -0.5779   0.9277   1.0303
     1.5978   1.6437   2.3683   2.5283   3.5520   3.9047   5.1725

          k = 0.2500 0.4330 0.0000 ( 38031 PWs)   bands (ev):

   -74.8758 -74.8596 -48.1851 -48.1828 -48.1706 -48.1682 -48.1674 -48.1652
   -48.1641 -48.1634 -48.1501 -48.1494 -48.1488 -48.1415 -48.1411 -48.1404
   -48.1393 -48.1364 -48.1227 -48.1123 -48.1116 -48.0940 -39.2352 -39.2126
   -39.1461 -39.1236 -39.0323 -39.0256 -13.6371 -13.5107 -13.4800 -13.4475
    -6.2533  -6.2304  -5.7225  -5.5237  -4.7050  -4.4355  -4.4294  -4.2997
    -4.2456  -3.9874  -3.4029  -3.2063  -0.2471  -0.0663   0.0112   0.1849
     1.7746   1.8812   2.0130   2.2074   3.9168   4.0908   5.2495

          k = 0.2500 0.5052 0.0000 ( 38019 PWs)   bands (ev):

   -74.8750 -74.8588 -48.1848 -48.1828 -48.1702 -48.1682 -48.1671 -48.1652
   -48.1641 -48.1635 -48.1501 -48.1495 -48.1486 -48.1411 -48.1411 -48.1405
   -48.1393 -48.1362 -48.1225 -48.1124 -48.1118 -48.0939 -39.2374 -39.2148
   -39.1659 -39.1433 -39.0287 -39.0220 -13.4765 -13.4018 -13.3069 -13.2602
    -6.4404  -6.3849  -5.6957  -5.5933  -4.9156  -4.8261  -4.5413  -4.3440
    -4.1277  -3.9696  -3.6244  -3.4571  -0.2708  -0.1006   0.3753   0.5081
     1.5542   1.5638   2.2321   2.5896   3.7001   3.9677   5.0295

          k = 0.2500 0.5774 0.0000 ( 38023 PWs)   bands (ev):

   -74.8747 -74.8585 -48.1846 -48.1829 -48.1700 -48.1683 -48.1669 -48.1652
   -48.1642 -48.1635 -48.1501 -48.1496 -48.1486 -48.1411 -48.1410 -48.1406
   -48.1393 -48.1362 -48.1224 -48.1124 -48.1118 -48.0938 -39.2370 -39.2144
   -39.1741 -39.1515 -39.0274 -39.0207 -13.4224 -13.3752 -13.2258 -13.1907
    -6.5101  -6.4298  -5.6798  -5.6232  -5.0558  -4.9952  -4.4857  -4.2559
    -4.1994  -4.0763  -3.6200  -3.4923  -0.3224  -0.1540   0.7109   0.8633
     1.2075   1.2453   2.5491   2.7063   3.5748   3.7332   4.9226

          k = 0.3125 0.5413 0.0000 ( 38095 PWs)   bands (ev):

   -74.8746 -74.8583 -48.1842 -48.1832 -48.1696 -48.1686 -48.1666 -48.1655
   -48.1641 -48.1636 -48.1501 -48.1497 -48.1486 -48.1411 -48.1407 -48.1406
   -48.1397 -48.1361 -48.1224 -48.1123 -48.1119 -48.0938 -39.2221 -39.1995
   -39.1933 -39.1707 -39.0267 -39.0201 -13.3355 -13.2975 -13.2506 -13.2211
    -6.1978  -6.1347  -5.7023  -5.6538  -5.4824  -5.4133  -4.4757  -4.2050
    -4.0214  -3.9648  -3.9148  -3.6933   0.0773   0.2644   0.3335   0.5155
     1.0666   1.0900   2.6647   3.0369   3.3296   3.6942   4.8640

     the Fermi energy is    -0.0267 ev

!    total energy              =   -3113.97543254 Ry
     total all-electron energy =    -83998.699997 Ry
     estimated scf accuracy    <       0.00000006 Ry
     smearing contrib. (-TS)   =       0.00073735 Ry
     internal energy E=F+TS    =   -3113.97616989 Ry

     The total energy is F=E-TS. E is the sum of the following terms:
     one-electron contribution =  -29488.85058343 Ry
     hartree contribution      =   14731.54770965 Ry
     xc contribution           =    -193.62549669 Ry
     ewald contribution        =   13598.26672101 Ry
     one-center paw contrib.   =   -1761.31452042 Ry

     convergence has been achieved in  31 iterations

     Writing all to output data dir ./tmp/cleave_000/wse2_cleave_000.save/ :
     XML data file, charge density, pseudopotentials, collected wavefunctions

     init_run     :     12.51s CPU     12.72s WALL (       1 calls)
     electrons    :    580.95s CPU    592.82s WALL (       1 calls)

     Called by init_run:
     wfcinit      :      6.05s CPU      6.08s WALL (       1 calls)
     potinit      :      5.84s CPU      5.89s WALL (       1 calls)
     hinit0       :      0.05s CPU      0.06s WALL (       1 calls)

     Called by electrons:
     c_bands      :    481.67s CPU    485.67s WALL (      32 calls)
     sum_band     :     65.28s CPU     68.93s WALL (      32 calls)
     v_of_rho     :     18.19s CPU     19.34s WALL (      32 calls)
     newd         :     11.76s CPU     14.86s WALL (      32 calls)
     PAW_pot      :      1.96s CPU      2.01s WALL (      32 calls)
     mix_rho      :      7.99s CPU      8.05s WALL (      32 calls)
     vdW_kernel   :      5.40s CPU      5.40s WALL (       1 calls)

     Called by c_bands:
     init_us_2    :      4.31s CPU      4.34s WALL (    1950 calls)
     cegterg      :    471.31s CPU    475.16s WALL (     960 calls)

     Called by *egterg:
     cdiaghg      :     13.83s CPU     13.86s WALL (    4130 calls)
     h_psi        :    212.75s CPU    214.16s WALL (    4190 calls)
     s_psi        :     45.81s CPU     45.88s WALL (    4190 calls)
     g_psi        :      0.80s CPU      0.80s WALL (    3200 calls)

     Called by h_psi:
     h_psi:calbec :     61.51s CPU     62.10s WALL (    4190 calls)
     vloc_psi     :     93.23s CPU     93.97s WALL (    4190 calls)
                                        0.00s GPU  (    4190 calls)
     add_vuspsi   :     57.17s CPU     57.25s WALL (    4190 calls)

     General routines
     calbec       :     88.59s CPU     89.43s WALL (    5150 calls)
     fft          :      7.47s CPU      7.61s WALL (    2015 calls)
     ffts         :      2.78s CPU      2.79s WALL (    3754 calls)
     fftw         :    102.29s CPU    103.11s WALL (  284802 calls)
     interpolate  :      0.14s CPU      0.14s WALL (      32 calls)

     Parallel routines

     PWSCF        :   9m54.03s CPU  10m 6.31s WALL


   This run was terminated on:  12:44:58  19Jun2026            

=------------------------------------------------------------------------------=
   JOB DONE.
=------------------------------------------------------------------------------=
Note: The following floating-point exceptions are signalling: IEEE_UNDERFLOW_FLAG IEEE_DENORMAL
Note: The following floating-point exceptions are signalling: IEEE_UNDERFLOW_FLAG IEEE_DENORMAL
Note: The following floating-point exceptions are signalling: IEEE_UNDERFLOW_FLAG IEEE_DENORMAL
Note: The following floating-point exceptions are signalling: IEEE_UNDERFLOW_FLAG IEEE_DENORMAL
Note: The following floating-point exceptions are signalling: IEEE_UNDERFLOW_FLAG IEEE_DENORMAL
Note: The following floating-point exceptions are signalling: IEEE_UNDERFLOW_FLAG IEEE_DENORMAL
Note: The following floating-point exceptions are signalling: IEEE_UNDERFLOW_FLAG IEEE_DENORMAL
Note: The following floating-point exceptions are signalling: IEEE_UNDERFLOW_FLAG IEEE_DENORMAL
Note: The following floating-point exceptions are signalling: IEEE_UNDERFLOW_FLAG IEEE_DENORMAL
Note: The following floating-point exceptions are signalling: IEEE_UNDERFLOW_FLAG IEEE_DENORMAL
Note: The following floating-point exceptions are signalling: IEEE_UNDERFLOW_FLAG IEEE_DENORMAL
Note: The following floating-point exceptions are signalling: IEEE_UNDERFLOW_FLAG IEEE_DENORMAL
Note: The following floating-point exceptions are signalling: IEEE_UNDERFLOW_FLAG IEEE_DENORMAL
Note: The following floating-point exceptions are signalling: IEEE_UNDERFLOW_FLAG IEEE_DENORMAL
Note: The following floating-point exceptions are signalling: IEEE_UNDERFLOW_FLAG IEEE_DENORMAL
Note: The following floating-point exceptions are signalling: IEEE_UNDERFLOW_FLAG IEEE_DENORMAL
Note: The following floating-point exceptions are signalling: IEEE_UNDERFLOW_FLAG IEEE_DENORMAL
Note: The following floating-point exceptions are signalling: IEEE_UNDERFLOW_FLAG IEEE_DENORMAL
Note: The following floating-point exceptions are signalling: IEEE_UNDERFLOW_FLAG IEEE_DENORMAL
Note: The following floating-point exceptions are signalling: IEEE_UNDERFLOW_FLAG IEEE_DENORMAL
Note: The following floating-point exceptions are signalling: IEEE_UNDERFLOW_FLAG IEEE_DENORMAL
Note: The following floating-point exceptions are signalling: IEEE_UNDERFLOW_FLAG IEEE_DENORMAL
Note: The following floating-point exceptions are signalling: IEEE_UNDERFLOW_FLAG IEEE_DENORMAL
Note: The following floating-point exceptions are signalling: IEEE_UNDERFLOW_FLAG IEEE_DENORMAL
