
     Program PWSCF v.7.5 starts on 19Jun2026 at 12:44:58 

     This program is part of the open-source Quantum ESPRESSO suite
     for quantum simulation of materials; please cite
         "P. Giannozzi et al., J. Phys.:Condens. Matter 21 395502 (2009);
         "P. Giannozzi et al., J. Phys.:Condens. Matter 29 465901 (2017);
         "P. Giannozzi et al., J. Chem. Phys. 152 154105 (2020);
          URL http://www.quantum-espresso.org", 
     in publications or presentations arising from this work. More details at
     http://www.quantum-espresso.org/quote

     Parallel version (MPI), running on    24 processors

     MPI processes distributed on     1 nodes
     48798 MiB available memory on the printing compute node when the environment starts

     Waiting for input...
     Reading input from standard input

     Current dimensions of program PWSCF are:
     Max number of different atomic species (ntypx) = 10
     Max number of k-points (npk) =  40000
     Max angular momentum in pseudopotentials (lmaxx) =  4
     file W.pbe-spn-kjpaw_psl.1.0.0.UPF: wavefunction(s)  6S 5P 5D renormalized
     file Se.pbe-dn-kjpaw_psl.1.0.0.UPF: wavefunction(s)  4S 4P 3D renormalized

     IMPORTANT: XC functional enforced from input :
     Exchange-correlation= VDW-DF2-B86R
                           (   1   4  26   0   2   0   0)
     Any further DFT definition will be discarded
     Please, verify this is what you really want


     R & G space division:  proc/nbgrp/npool/nimage =      24
     Subspace diagonalization in iterative solution of the eigenvalue problem:
     a serial algorithm will be used


     Parallelization info
     --------------------
     sticks:   dense  smooth     PW     G-vecs:    dense   smooth      PW
     Min          69      35     10                35699    12655    1944
     Max          70      36     12                35802    12730    1997
     Sum        1675     847    253               858263   304337   46813

     Using Slab Decomposition



     bravais-lattice index     =            4
     lattice parameter (alat)  =       6.1983  a.u.
     unit-cell volume          =    3143.7277 (a.u.)^3
     number of atoms/cell      =            6
     number of atomic types    =            2
     number of electrons       =        92.00
     number of Kohn-Sham states=           55
     kinetic-energy cutoff     =      80.0000  Ry
     charge density cutoff     =     640.0000  Ry
     scf convergence threshold =      1.0E-07
     mixing beta               =       0.1000
     number of iterations used =           12  local-TF  mixing
     Exchange-correlation= VDW-DF2-B86R
                           (   1   4  26   0   2   0   0)

     celldm(1)=   6.198302  celldm(2)=   0.000000  celldm(3)=  15.243902
     celldm(4)=   0.000000  celldm(5)=   0.000000  celldm(6)=   0.000000

     crystal axes: (cart. coord. in units of alat)
               a(1) = (   1.000000   0.000000   0.000000 )  
               a(2) = (  -0.500000   0.866025   0.000000 )  
               a(3) = (   0.000000   0.000000  15.243902 )  

     reciprocal axes: (cart. coord. in units 2 pi/alat)
               b(1) = (  1.000000  0.577350 -0.000000 )  
               b(2) = (  0.000000  1.154701  0.000000 )  
               b(3) = (  0.000000 -0.000000  0.065600 )  


     PseudoPot. # 1 for W  read from file:
     ./pseudo/W.pbe-spn-kjpaw_psl.1.0.0.UPF
     MD5 check sum: 03c3df5b60893f488392c7401945500a
     Pseudo is Projector augmented-wave + core cor, Zval = 14.0
     Generated using &quot;atomic&quot; code by A. Dal Corso  v.6.2.2
     Shape of augmentation charge: PSQ
     Using radial grid of 1273 points,  6 beta functions with: 
                l(1) =   0
                l(2) =   0
                l(3) =   1
                l(4) =   1
                l(5) =   2
                l(6) =   2
     Q(r) pseudized with 0 coefficients 


     PseudoPot. # 2 for Se read from file:
     ./pseudo/Se.pbe-dn-kjpaw_psl.1.0.0.UPF
     MD5 check sum: ac240dd2bae32a30e0bf3a38df9c8785
     Pseudo is Projector augmented-wave + core cor, Zval = 16.0
     Generated using &quot;atomic&quot; code by A. Dal Corso  v.6.3
     Shape of augmentation charge: PSQ
     Using radial grid of 1211 points,  6 beta functions with: 
                l(1) =   0
                l(2) =   0
                l(3) =   1
                l(4) =   1
                l(5) =   2
                l(6) =   2
     Q(r) pseudized with 0 coefficients 


     atomic species   valence    mass     pseudopotential
     W                14.00   183.84000     W ( 1.00)
     Se               16.00    78.96000     Se( 1.00)

      6 Sym. Ops. (no inversion) found



   Cartesian axes

     site n.     atom                  positions (alat units)
         1        Se     tau(   1) = (  -0.0000005   0.5773506   6.1149390  )
         2        W      tau(   2) = (   0.0000000   0.0000000   6.6383232  )
         3        Se     tau(   3) = (   0.5000005   0.2886748   7.1618445  )
         4        Se     tau(   4) = (  -0.0000005   0.5773506   8.1426067  )
         5        W      tau(   5) = (   0.5000005   0.2886748   8.6658537  )
         6        Se     tau(   6) = (   0.0000000   0.0000000   9.1899390  )

     number of k points=    30  Methfessel-Paxton smearing, width (Ry)=  0.0200
                       cart. coord. in units 2pi/alat
        k(    1) = (   0.0000000   0.0000000   0.0000000), wk =   0.0078125
        k(    2) = (   0.0000000   0.0721688   0.0000000), wk =   0.0468750
        k(    3) = (   0.0000000   0.1443376   0.0000000), wk =   0.0468750
        k(    4) = (   0.0000000   0.2165064   0.0000000), wk =   0.0468750
        k(    5) = (   0.0000000   0.2886751   0.0000000), wk =   0.0468750
        k(    6) = (   0.0000000   0.3608439   0.0000000), wk =   0.0468750
        k(    7) = (   0.0000000   0.4330127   0.0000000), wk =   0.0468750
        k(    8) = (   0.0000000   0.5051815   0.0000000), wk =   0.0468750
        k(    9) = (   0.0000000  -0.5773503   0.0000000), wk =   0.0234375
        k(   10) = (   0.0625000   0.1082532   0.0000000), wk =   0.0468750
        k(   11) = (   0.0625000   0.1804220   0.0000000), wk =   0.0937500
        k(   12) = (   0.0625000   0.2525907   0.0000000), wk =   0.0937500
        k(   13) = (   0.0625000   0.3247595   0.0000000), wk =   0.0937500
        k(   14) = (   0.0625000   0.3969283   0.0000000), wk =   0.0937500
        k(   15) = (   0.0625000   0.4690971   0.0000000), wk =   0.0937500
        k(   16) = (   0.0625000   0.5412659   0.0000000), wk =   0.0937500
        k(   17) = (   0.1250000   0.2165064   0.0000000), wk =   0.0468750
        k(   18) = (   0.1250000   0.2886751   0.0000000), wk =   0.0937500
        k(   19) = (   0.1250000   0.3608439   0.0000000), wk =   0.0937500
        k(   20) = (   0.1250000   0.4330127   0.0000000), wk =   0.0937500
        k(   21) = (   0.1250000   0.5051815   0.0000000), wk =   0.0937500
        k(   22) = (   0.1250000   0.5773503   0.0000000), wk =   0.0468750
        k(   23) = (   0.1875000   0.3247595   0.0000000), wk =   0.0468750
        k(   24) = (   0.1875000   0.3969283   0.0000000), wk =   0.0937500
        k(   25) = (   0.1875000   0.4690971   0.0000000), wk =   0.0937500
        k(   26) = (   0.1875000   0.5412659   0.0000000), wk =   0.0937500
        k(   27) = (   0.2500000   0.4330127   0.0000000), wk =   0.0468750
        k(   28) = (   0.2500000   0.5051815   0.0000000), wk =   0.0937500
        k(   29) = (   0.2500000   0.5773503   0.0000000), wk =   0.0468750
        k(   30) = (   0.3125000   0.5412659   0.0000000), wk =   0.0468750

     Dense  grid:   858263 G-vectors     FFT dimensions: (  50,  50, 768)

     Smooth grid:   304337 G-vectors     FFT dimensions: (  36,  36, 540)

     Estimated max dynamical RAM per process >     176.97 MB

     Estimated total dynamical RAM >       4.15 GB

     Initial potential from superposition of free atoms

     starting charge      91.9986, renormalised to      92.0000

     negative rho (up, down):  1.902E-04 0.000E+00


     %%%%%%%%%%%%%%%%%%%%%%%%%%%%%%%%%%%%%%%%%%%%%%%%%%%%%%%%%%%%%%%%%%%%%%%%
     %                                                                      %
     % You are using vdW-DF, which was implemented by the Thonhauser group. %
     % Please cite the following two papers that made this development      %
     % possible and the two reviews that describe the various versions:     %
     %                                                                      %
     %   T. Thonhauser et al., PRL 115, 136402 (2015).                      %
     %   T. Thonhauser et al., PRB 76, 125112 (2007).                       %
     %   K. Berland et al., Rep. Prog. Phys. 78, 066501 (2015).             %
     %   D.C. Langreth et al., J. Phys.: Condens. Matter 21, 084203 (2009). %
     %                                                                      %
     % If you are calculating stress with vdW-DF, please also cite:         %
     %                                                                      %
     %   R. Sabatini et al., J. Phys.: Condens. Matter 24, 424209 (2012).   %
     %                                                                      %
     %%%%%%%%%%%%%%%%%%%%%%%%%%%%%%%%%%%%%%%%%%%%%%%%%%%%%%%%%%%%%%%%%%%%%%%%

     %%%%%%%%%%%%%%%%%%%%%%%%%%%%%%%%%%%%%%%%%%%%%%%%%%%%%%%%%%%%%%%%%%%%%%%%
     %                                                                      %
     %  vdW-DF NEWS:                                                        %
     %                                                                      %
     %  * vdW-DF3 is now available. DOI: 10.1021/acs.jctc.0c00471           %
     %    use with input_dft = 'vdW-DF3-opt1' or 'vdW-DF3-opt2'             %
     %                                                                      %
     %  * Unscreened and range-separated hybrid vdW-DF-cx functionals       %
     %    DOI: 10.1063/1.4986522 and 10.1088/1361-648X/ac2ad2               %
     %    use with input_dft = 'vdW-DF-cx0'    and 'vdW-DF-ahcx'            %
     %  * Unscreened and range-separated hybrid vdW-DF2-b86r functionals    %
     %    DOI: 10.1063/1.4986522 and DOI: 10.1103/PhysRevX.12.041003        %
     %    use with input_dft = 'vdW-DF2-br0' and 'vdW-DF2-ahbr'             %
     %                                                                      %
     %%%%%%%%%%%%%%%%%%%%%%%%%%%%%%%%%%%%%%%%%%%%%%%%%%%%%%%%%%%%%%%%%%%%%%%%


     Starting wfcs are   62 randomized atomic wfcs
     Checking if some PAW data can be deallocated... 

     total cpu time spent up to now is       12.8 secs

     per-process dynamical memory:    81.7 Mb

     Self-consistent Calculation

     iteration #  1     ecut=    80.00 Ry     beta= 0.10
     Davidson diagonalization with overlap
     ethr =  1.00E-02,  avg # of iterations =  3.9

     Threshold (ethr) on eigenvalues was too large:
     Diagonalizing with lowered threshold

     Davidson diagonalization with overlap
     ethr =  1.04E-04,  avg # of iterations =  5.6

     negative rho (up, down):  9.633E-05 0.000E+00

     total cpu time spent up to now is       55.5 secs

     total energy              =   -3114.00679360 Ry
     estimated scf accuracy    <       0.12318787 Ry

     iteration #  2     ecut=    80.00 Ry     beta= 0.10
     Davidson diagonalization with overlap
     ethr =  1.34E-04,  avg # of iterations =  1.0

     negative rho (up, down):  7.715E-05 0.000E+00

     total cpu time spent up to now is       71.0 secs

     total energy              =   -3113.95973371 Ry
     estimated scf accuracy    <       0.10977487 Ry

     iteration #  3     ecut=    80.00 Ry     beta= 0.10
     Davidson diagonalization with overlap
     ethr =  1.19E-04,  avg # of iterations =  3.6

     negative rho (up, down):  3.176E-05 0.000E+00

     total cpu time spent up to now is       91.9 secs

     total energy              =   -3113.97683483 Ry
     estimated scf accuracy    <       0.01442529 Ry

     iteration #  4     ecut=    80.00 Ry     beta= 0.10
     Davidson diagonalization with overlap
     ethr =  1.57E-05,  avg # of iterations =  3.5

     negative rho (up, down):  2.609E-06 0.000E+00

     total cpu time spent up to now is      111.8 secs

     total energy              =   -3113.97525754 Ry
     estimated scf accuracy    <       0.01253552 Ry

     iteration #  5     ecut=    80.00 Ry     beta= 0.10
     Davidson diagonalization with overlap
     ethr =  1.36E-05,  avg # of iterations =  2.5

     negative rho (up, down):  1.736E-06 0.000E+00

     total cpu time spent up to now is      130.6 secs

     total energy              =   -3113.97595785 Ry
     estimated scf accuracy    <       0.00265856 Ry

     iteration #  6     ecut=    80.00 Ry     beta= 0.10
     Davidson diagonalization with overlap
     ethr =  2.89E-06,  avg # of iterations =  4.9

     negative rho (up, down):  4.767E-07 0.000E+00

     total cpu time spent up to now is      149.6 secs

     total energy              =   -3113.97530845 Ry
     estimated scf accuracy    <       0.00226913 Ry

     iteration #  7     ecut=    80.00 Ry     beta= 0.10
     Davidson diagonalization with overlap
     ethr =  2.47E-06,  avg # of iterations =  7.1

     negative rho (up, down):  4.357E-07 0.000E+00

     total cpu time spent up to now is      170.4 secs

     total energy              =   -3113.97543511 Ry
     estimated scf accuracy    <       0.00148708 Ry

     iteration #  8     ecut=    80.00 Ry     beta= 0.10
     Davidson diagonalization with overlap
     ethr =  1.62E-06,  avg # of iterations =  1.1

     negative rho (up, down):  5.769E-07 0.000E+00

     total cpu time spent up to now is      186.0 secs

     total energy              =   -3113.97531340 Ry
     estimated scf accuracy    <       0.00101486 Ry

     iteration #  9     ecut=    80.00 Ry     beta= 0.10
     Davidson diagonalization with overlap
     ethr =  1.10E-06,  avg # of iterations =  4.0

     negative rho (up, down):  5.983E-07 0.000E+00

     total cpu time spent up to now is      205.4 secs

     total energy              =   -3113.97538154 Ry
     estimated scf accuracy    <       0.00062033 Ry

     iteration # 10     ecut=    80.00 Ry     beta= 0.10
     Davidson diagonalization with overlap
     ethr =  6.74E-07,  avg # of iterations =  1.1

     negative rho (up, down):  1.679E-07 0.000E+00

     total cpu time spent up to now is      221.2 secs

     total energy              =   -3113.97537978 Ry
     estimated scf accuracy    <       0.00060763 Ry

     iteration # 11     ecut=    80.00 Ry     beta= 0.10
     Davidson diagonalization with overlap
     ethr =  6.60E-07,  avg # of iterations =  1.4

     negative rho (up, down):  1.259E-05 0.000E+00

     total cpu time spent up to now is      237.8 secs

     total energy              =   -3113.97530588 Ry
     estimated scf accuracy    <       0.00049546 Ry

     iteration # 12     ecut=    80.00 Ry     beta= 0.10
     Davidson diagonalization with overlap
     ethr =  5.39E-07,  avg # of iterations =  4.0

     negative rho (up, down):  1.243E-05 0.000E+00

     total cpu time spent up to now is      255.4 secs

     total energy              =   -3113.97531211 Ry
     estimated scf accuracy    <       0.00035829 Ry

     iteration # 13     ecut=    80.00 Ry     beta= 0.10
     Davidson diagonalization with overlap
     ethr =  3.89E-07,  avg # of iterations =  1.0

     negative rho (up, down):  3.357E-04 0.000E+00

     total cpu time spent up to now is      271.1 secs

     total energy              =   -3113.97527048 Ry
     estimated scf accuracy    <       0.00035786 Ry

     iteration # 14     ecut=    80.00 Ry     beta= 0.10
     Davidson diagonalization with overlap
     ethr =  3.89E-07,  avg # of iterations =  1.4

     negative rho (up, down):  4.824E-04 0.000E+00

     total cpu time spent up to now is      288.0 secs

     total energy              =   -3113.97526761 Ry
     estimated scf accuracy    <       0.00035240 Ry

     iteration # 15     ecut=    80.00 Ry     beta= 0.10
     Davidson diagonalization with overlap
     ethr =  3.83E-07,  avg # of iterations =  3.8

     negative rho (up, down):  2.514E-04 0.000E+00

     total cpu time spent up to now is      306.4 secs

     total energy              =   -3113.97528880 Ry
     estimated scf accuracy    <       0.00039301 Ry

     iteration # 16     ecut=    80.00 Ry     beta= 0.10
     Davidson diagonalization with overlap
     ethr =  3.83E-07,  avg # of iterations =  1.3

     negative rho (up, down):  5.082E-04 0.000E+00

     total cpu time spent up to now is      322.6 secs

     total energy              =   -3113.97529579 Ry
     estimated scf accuracy    <       0.00040737 Ry

     iteration # 17     ecut=    80.00 Ry     beta= 0.10
     Davidson diagonalization with overlap
     ethr =  3.83E-07,  avg # of iterations =  1.8

     negative rho (up, down):  2.306E-03 0.000E+00

     total cpu time spent up to now is      339.2 secs

     total energy              =   -3113.97530776 Ry
     estimated scf accuracy    <       0.00044650 Ry

     iteration # 18     ecut=    80.00 Ry     beta= 0.10
     Davidson diagonalization with overlap
     ethr =  3.83E-07,  avg # of iterations =  4.9

     negative rho (up, down):  2.131E-03 0.000E+00

     total cpu time spent up to now is      358.4 secs

     total energy              =   -3113.97532742 Ry
     estimated scf accuracy    <       0.00075137 Ry

     iteration # 19     ecut=    80.00 Ry     beta= 0.10
     Davidson diagonalization with overlap
     ethr =  3.83E-07,  avg # of iterations =  1.0

     negative rho (up, down):  9.911E-04 0.000E+00

     total cpu time spent up to now is      373.9 secs

     total energy              =   -3113.97531803 Ry
     estimated scf accuracy    <       0.00075860 Ry

     iteration # 20     ecut=    80.00 Ry     beta= 0.10
     Davidson diagonalization with overlap
     ethr =  3.83E-07,  avg # of iterations =  4.4

     negative rho (up, down):  1.121E-03 0.000E+00

     total cpu time spent up to now is      391.3 secs

     total energy              =   -3113.97524702 Ry
     estimated scf accuracy    <       0.00067425 Ry

     iteration # 21     ecut=    80.00 Ry     beta= 0.10
     Davidson diagonalization with overlap
     ethr =  3.83E-07,  avg # of iterations =  2.9

     negative rho (up, down):  1.172E-03 0.000E+00

     total cpu time spent up to now is      408.2 secs

     total energy              =   -3113.97520013 Ry
     estimated scf accuracy    <       0.00048091 Ry

     iteration # 22     ecut=    80.00 Ry     beta= 0.10
     Davidson diagonalization with overlap
     ethr =  3.83E-07,  avg # of iterations =  3.3

     negative rho (up, down):  2.745E-03 0.000E+00

     total cpu time spent up to now is      425.8 secs

     total energy              =   -3113.97512103 Ry
     estimated scf accuracy    <       0.00014669 Ry

     iteration # 23     ecut=    80.00 Ry     beta= 0.10
     Davidson diagonalization with overlap
     ethr =  1.59E-07,  avg # of iterations =  6.3

     negative rho (up, down):  1.776E-03 0.000E+00

     total cpu time spent up to now is      448.1 secs

     total energy              =   -3113.97520516 Ry
     estimated scf accuracy    <       0.00018637 Ry

     iteration # 24     ecut=    80.00 Ry     beta= 0.10
     Davidson diagonalization with overlap
     ethr =  1.59E-07,  avg # of iterations =  4.6

     negative rho (up, down):  1.851E-03 0.000E+00

     total cpu time spent up to now is      467.1 secs

     total energy              =   -3113.97523114 Ry
     estimated scf accuracy    <       0.00007176 Ry

     iteration # 25     ecut=    80.00 Ry     beta= 0.10
     Davidson diagonalization with overlap
     ethr =  7.80E-08,  avg # of iterations =  3.1

     negative rho (up, down):  2.234E-03 0.000E+00

     total cpu time spent up to now is      486.1 secs

     total energy              =   -3113.97521186 Ry
     estimated scf accuracy    <       0.00008491 Ry

     iteration # 26     ecut=    80.00 Ry     beta= 0.10
     Davidson diagonalization with overlap
     ethr =  7.80E-08,  avg # of iterations =  3.3

     negative rho (up, down):  2.184E-03 0.000E+00

     total cpu time spent up to now is      506.2 secs

     total energy              =   -3113.97522020 Ry
     estimated scf accuracy    <       0.00001375 Ry

     iteration # 27     ecut=    80.00 Ry     beta= 0.10
     Davidson diagonalization with overlap
     ethr =  1.50E-08,  avg # of iterations =  2.0

     negative rho (up, down):  2.045E-03 0.000E+00

     total cpu time spent up to now is      524.3 secs

     total energy              =   -3113.97522748 Ry
     estimated scf accuracy    <       0.00001356 Ry

     iteration # 28     ecut=    80.00 Ry     beta= 0.10
     Davidson diagonalization with overlap
     ethr =  1.47E-08,  avg # of iterations =  1.9

     negative rho (up, down):  1.990E-03 0.000E+00

     total cpu time spent up to now is      542.3 secs

     total energy              =   -3113.97522268 Ry
     estimated scf accuracy    <       0.00000933 Ry

     iteration # 29     ecut=    80.00 Ry     beta= 0.10
     Davidson diagonalization with overlap
     ethr =  1.01E-08,  avg # of iterations =  3.4

     negative rho (up, down):  1.669E-03 0.000E+00

     total cpu time spent up to now is      560.9 secs

     total energy              =   -3113.97523142 Ry
     estimated scf accuracy    <       0.00000787 Ry

     iteration # 30     ecut=    80.00 Ry     beta= 0.10
     Davidson diagonalization with overlap
     ethr =  8.55E-09,  avg # of iterations =  3.4

     negative rho (up, down):  7.991E-04 0.000E+00

     total cpu time spent up to now is      580.0 secs

     total energy              =   -3113.97522721 Ry
     estimated scf accuracy    <       0.00000510 Ry

     iteration # 31     ecut=    80.00 Ry     beta= 0.10
     Davidson diagonalization with overlap
     ethr =  5.54E-09,  avg # of iterations =  4.2

     negative rho (up, down):  7.668E-04 0.000E+00

     total cpu time spent up to now is      601.2 secs

     total energy              =   -3113.97523011 Ry
     estimated scf accuracy    <       0.00000535 Ry

     iteration # 32     ecut=    80.00 Ry     beta= 0.10
     Davidson diagonalization with overlap
     ethr =  5.54E-09,  avg # of iterations =  1.6

     negative rho (up, down):  7.682E-04 0.000E+00

     total cpu time spent up to now is      618.6 secs

     total energy              =   -3113.97523033 Ry
     estimated scf accuracy    <       0.00000220 Ry

     iteration # 33     ecut=    80.00 Ry     beta= 0.10
     Davidson diagonalization with overlap
     ethr =  2.39E-09,  avg # of iterations =  1.0

     negative rho (up, down):  7.693E-04 0.000E+00

     total cpu time spent up to now is      634.1 secs

     total energy              =   -3113.97522932 Ry
     estimated scf accuracy    <       0.00000216 Ry

     iteration # 34     ecut=    80.00 Ry     beta= 0.10
     Davidson diagonalization with overlap
     ethr =  2.35E-09,  avg # of iterations =  1.2

     negative rho (up, down):  7.029E-04 0.000E+00

     total cpu time spent up to now is      650.2 secs

     total energy              =   -3113.97522939 Ry
     estimated scf accuracy    <       0.00000296 Ry

     iteration # 35     ecut=    80.00 Ry     beta= 0.10
     Davidson diagonalization with overlap
     ethr =  2.35E-09,  avg # of iterations =  1.1

     negative rho (up, down):  7.694E-04 0.000E+00

     total cpu time spent up to now is      665.7 secs

     total energy              =   -3113.97523089 Ry
     estimated scf accuracy    <       0.00000262 Ry

     iteration # 36     ecut=    80.00 Ry     beta= 0.10
     Davidson diagonalization with overlap
     ethr =  2.35E-09,  avg # of iterations =  2.0

     negative rho (up, down):  2.865E-04 0.000E+00

     total cpu time spent up to now is      684.0 secs

     total energy              =   -3113.97523175 Ry
     estimated scf accuracy    <       0.00000167 Ry

     iteration # 37     ecut=    80.00 Ry     beta= 0.10
     Davidson diagonalization with overlap
     ethr =  1.82E-09,  avg # of iterations =  4.1

     negative rho (up, down):  2.816E-04 0.000E+00

     total cpu time spent up to now is      704.7 secs

     total energy              =   -3113.97523212 Ry
     estimated scf accuracy    <       0.00000081 Ry

     iteration # 38     ecut=    80.00 Ry     beta= 0.10
     Davidson diagonalization with overlap
     ethr =  8.80E-10,  avg # of iterations =  2.0

     negative rho (up, down):  2.716E-04 0.000E+00

     total cpu time spent up to now is      723.0 secs

     total energy              =   -3113.97523180 Ry
     estimated scf accuracy    <       0.00000027 Ry

     iteration # 39     ecut=    80.00 Ry     beta= 0.10
     Davidson diagonalization with overlap
     ethr =  2.92E-10,  avg # of iterations =  1.2

     negative rho (up, down):  2.410E-04 0.000E+00

     total cpu time spent up to now is      739.2 secs

     total energy              =   -3113.97523119 Ry
     estimated scf accuracy    <       0.00000021 Ry

     iteration # 40     ecut=    80.00 Ry     beta= 0.10
     Davidson diagonalization with overlap
     ethr =  2.27E-10,  avg # of iterations =  2.1

     negative rho (up, down):  2.156E-04 0.000E+00

     total cpu time spent up to now is      759.2 secs

     total energy              =   -3113.97523146 Ry
     estimated scf accuracy    <       0.00000014 Ry

     iteration # 41     ecut=    80.00 Ry     beta= 0.10
     Davidson diagonalization with overlap
     ethr =  1.52E-10,  avg # of iterations =  1.4

     negative rho (up, down):  1.891E-04 0.000E+00

     total cpu time spent up to now is      775.6 secs

     End of self-consistent calculation

          k = 0.0000 0.0000 0.0000 ( 38015 PWs)   bands (ev):

   -74.8861 -74.8750 -48.1726 -48.1726 -48.1665 -48.1665 -48.1610 -48.1610
   -48.1470 -48.1470 -48.1468 -48.1468 -48.1377 -48.1377 -48.1347 -48.1347
   -48.1345 -48.1263 -48.1201 -48.1153 -48.1153 -48.1009 -39.0800 -39.0752
   -39.0444 -39.0444 -39.0291 -39.0291 -15.5941 -15.4758 -14.5472 -14.3749
    -7.2675  -6.7728  -3.8570  -3.3667  -3.3667  -3.3449  -3.3449  -2.8109
    -1.5013  -0.8792  -0.6984  -0.6983  -0.6835  -0.6835   0.1605   0.1605
     0.2202   0.2202   3.3475   3.3475   3.4368   3.4368   3.4448

          k = 0.0000 0.0722 0.0000 ( 37975 PWs)   bands (ev):

   -74.8857 -74.8746 -48.1726 -48.1725 -48.1665 -48.1663 -48.1610 -48.1609
   -48.1470 -48.1469 -48.1468 -48.1468 -48.1378 -48.1377 -48.1347 -48.1347
   -48.1344 -48.1262 -48.1200 -48.1153 -48.1153 -48.1008 -39.0782 -39.0734
   -39.0535 -39.0466 -39.0382 -39.0313 -15.5331 -15.4148 -14.5174 -14.3480
    -7.1859  -6.6917  -4.1326  -3.6777  -3.3326  -3.3102  -3.1446  -2.5863
    -1.5331  -1.1912  -0.9990  -0.9339  -0.9112  -0.8256   0.1773   0.2596
     0.3664   0.4219   3.0272   3.1090   3.2992   3.4020   3.5903

          k = 0.0000 0.1443 0.0000 ( 37895 PWs)   bands (ev):

   -74.8846 -74.8735 -48.1726 -48.1719 -48.1664 -48.1658 -48.1610 -48.1603
   -48.1471 -48.1469 -48.1469 -48.1462 -48.1380 -48.1378 -48.1349 -48.1347
   -48.1342 -48.1260 -48.1198 -48.1155 -48.1154 -48.1005 -39.0794 -39.0729
   -39.0684 -39.0638 -39.0526 -39.0373 -15.3543 -15.2362 -14.4304 -14.2693
    -6.9486  -6.4572  -4.5689  -4.1741  -3.2515  -3.2271  -2.9362  -2.4615
    -2.0650  -2.0035  -1.3242  -1.3192  -1.2918  -0.9365   0.1375   0.3827
     0.6683   0.7310   2.4915   2.5882   3.2113   3.3377   3.8867

          k = 0.0000 0.2165 0.0000 ( 37851 PWs)   bands (ev):

   -74.8828 -74.8718 -48.1726 -48.1712 -48.1664 -48.1650 -48.1610 -48.1596
   -48.1474 -48.1470 -48.1469 -48.1455 -48.1383 -48.1379 -48.1352 -48.1348
   -48.1338 -48.1256 -48.1194 -48.1158 -48.1155 -48.1001 -39.1177 -39.1024
   -39.0653 -39.0616 -39.0605 -39.0463 -15.0710 -14.9538 -14.2926 -14.1453
    -6.5837  -6.1046  -4.9756  -4.6348  -3.3410  -3.2943  -3.1925  -3.1634
    -2.6511  -2.2381  -1.6220  -1.5812  -1.4256  -1.1814   0.1320   0.4692
     0.8659   0.9407   2.1343   2.4468   3.1745   3.3220   4.2838

          k = 0.0000 0.2887 0.0000 ( 37919 PWs)   bands (ev):

   -74.8808 -74.8698 -48.1726 -48.1703 -48.1665 -48.1641 -48.1611 -48.1587
   -48.1477 -48.1471 -48.1470 -48.1446 -48.1386 -48.1380 -48.1355 -48.1349
   -48.1334 -48.1252 -48.1190 -48.1162 -48.1156 -48.0997 -39.1626 -39.1472
   -39.0723 -39.0569 -39.0561 -39.0514 -14.7092 -14.5954 -14.1130 -13.9845
    -6.1802  -5.7624  -5.2582  -4.9593  -4.3951  -4.3397  -3.2428  -3.2076
    -2.7957  -2.4663  -1.7272  -1.6959  -1.6745  -1.5564   0.2476   0.6310
     0.9717   1.0484   2.2109   2.7360   3.2079   3.3783   4.7687

          k = 0.0000 0.3608 0.0000 ( 37933 PWs)   bands (ev):

   -74.8788 -74.8678 -48.1727 -48.1694 -48.1665 -48.1632 -48.1611 -48.1579
   -48.1480 -48.1472 -48.1470 -48.1437 -48.1389 -48.1380 -48.1359 -48.1350
   -48.1329 -48.1247 -48.1185 -48.1165 -48.1157 -48.0993 -39.2072 -39.1918
   -39.0829 -39.0675 -39.0470 -39.0423 -14.3208 -14.2155 -13.8950 -13.7885
    -6.0482  -5.8853  -5.4553  -5.2902  -5.0622  -4.7413  -3.3955  -3.3554
    -3.1046  -2.8580  -2.0045  -1.8652  -1.6794  -1.6071   0.5732   0.9448
     1.0758   1.1380   2.6095   3.2165   3.2678   3.4640   4.8010

          k = 0.0000 0.4330 0.0000 ( 37998 PWs)   bands (ev):

   -74.8771 -74.8661 -48.1727 -48.1687 -48.1665 -48.1625 -48.1611 -48.1572
   -48.1483 -48.1473 -48.1470 -48.1430 -48.1392 -48.1381 -48.1362 -48.1351
   -48.1325 -48.1244 -48.1182 -48.1168 -48.1158 -48.0989 -39.2447 -39.2293
   -39.0918 -39.0765 -39.0392 -39.0345 -14.0038 -13.9186 -13.6230 -13.5364
    -6.5812  -6.5065  -5.7834  -5.5236  -4.8277  -4.6068  -3.5620  -3.5191
    -3.4062  -3.1314  -2.1886  -2.0655  -1.5989  -1.5034   1.0515   1.2311
     1.2692   1.3656   3.0979   3.3162   3.5215   3.5363   4.4309

          k = 0.0000 0.5052 0.0000 ( 38048 PWs)   bands (ev):

   -74.8760 -74.8649 -48.1728 -48.1682 -48.1665 -48.1620 -48.1612 -48.1567
   -48.1485 -48.1473 -48.1470 -48.1425 -48.1394 -48.1382 -48.1363 -48.1352
   -48.1323 -48.1241 -48.1179 -48.1170 -48.1158 -48.0987 -39.2696 -39.2542
   -39.0978 -39.0825 -39.0340 -39.0293 -13.8260 -13.7659 -13.3473 -13.2807
    -7.1397  -7.0737  -5.7692  -5.5705  -4.8736  -4.7087  -3.6798  -3.6353
    -3.3706  -3.0558  -2.2935  -2.2041  -1.5488  -1.4355   1.3929   1.4135
     1.5550   1.7772   3.2398   3.3429   3.5795   3.5831   4.3493

          k = 0.0000-0.5774 0.0000 ( 38024 PWs)   bands (ev):

   -74.8756 -74.8645 -48.1728 -48.1681 -48.1665 -48.1619 -48.1612 -48.1565
   -48.1486 -48.1473 -48.1470 -48.1423 -48.1395 -48.1382 -48.1364 -48.1352
   -48.1322 -48.1240 -48.1178 -48.1170 -48.1158 -48.0986 -39.2783 -39.2629
   -39.0999 -39.0846 -39.0322 -39.0275 -13.7688 -13.7209 -13.2272 -13.1738
    -7.3468  -7.2926  -5.6884  -5.5947  -4.9859  -4.8194  -3.7215  -3.6765
    -3.2452  -2.9666  -2.3420  -2.2622  -1.5339  -1.4141   1.4620   1.4805
     1.8140   1.9443   3.3032   3.3509   3.5492   3.5934   4.0506

          k = 0.0625 0.1083 0.0000 ( 37895 PWs)   bands (ev):

   -74.8849 -74.8738 -48.1726 -48.1721 -48.1664 -48.1659 -48.1610 -48.1605
   -48.1470 -48.1469 -48.1469 -48.1464 -48.1379 -48.1378 -48.1348 -48.1347
   -48.1342 -48.1261 -48.1198 -48.1155 -48.1153 -48.1006 -39.0747 -39.0707
   -39.0700 -39.0554 -39.0509 -39.0356 -15.4132 -15.2949 -14.4591 -14.2952
    -7.0262  -6.5335  -4.4497  -4.0378  -3.2822  -3.2599  -2.9695  -2.4307
    -1.8013  -1.7667  -1.3280  -1.3169  -1.2094  -0.8251   0.2201   0.4144
     0.5199   0.5751   2.7324   2.7475   3.1772   3.2607   3.8012

          k = 0.0625 0.1804 0.0000 ( 37885 PWs)   bands (ev):

   -74.8835 -74.8724 -48.1726 -48.1715 -48.1664 -48.1653 -48.1610 -48.1599
   -48.1472 -48.1469 -48.1469 -48.1458 -48.1382 -48.1378 -48.1351 -48.1348
   -48.1339 -48.1258 -48.1195 -48.1157 -48.1154 -48.1003 -39.1020 -39.0867
   -39.0684 -39.0635 -39.0590 -39.0438 -15.1817 -15.0640 -14.3468 -14.1940
    -6.7216  -6.2349  -4.8361  -4.4754  -3.2788  -3.2526  -2.9504  -2.7425
    -2.5311  -2.3468  -1.6888  -1.6335  -1.2553  -0.9085   0.2588   0.4577
     0.6629   0.7234   2.4134   2.5831   3.0165   3.1295   4.1379

          k = 0.0625 0.2526 0.0000 ( 37916 PWs)   bands (ev):

   -74.8816 -74.8706 -48.1726 -48.1707 -48.1664 -48.1645 -48.1610 -48.1591
   -48.1476 -48.1470 -48.1469 -48.1450 -48.1385 -48.1379 -48.1354 -48.1349
   -48.1335 -48.1254 -48.1191 -48.1160 -48.1155 -48.0999 -39.1427 -39.1274
   -39.0701 -39.0597 -39.0562 -39.0535 -14.8574 -14.7417 -14.1889 -14.0525
    -6.3180  -5.8570  -5.1688  -4.8548  -3.9372  -3.8960  -3.2271  -3.1929
    -2.7284  -2.4802  -1.9455  -1.8978  -1.2940  -1.0845   0.1890   0.4229
     0.8445   0.9759   2.3056   2.5941   3.0568   3.1679   4.5805

          k = 0.0625 0.3248 0.0000 ( 37964 PWs)   bands (ev):

   -74.8796 -74.8686 -48.1726 -48.1699 -48.1664 -48.1637 -48.1610 -48.1583
   -48.1479 -48.1472 -48.1469 -48.1442 -48.1388 -48.1380 -48.1357 -48.1350
   -48.1331 -48.1249 -48.1187 -48.1163 -48.1156 -48.0995 -39.1864 -39.1710
   -39.0817 -39.0664 -39.0506 -39.0458 -14.4759 -14.3657 -13.9939 -13.8785
    -5.9899  -5.6714  -5.3207  -5.0871  -4.8807  -4.7330  -3.4612  -3.4245
    -2.8091  -2.6389  -2.2617  -2.2412  -1.3254  -1.2009   0.2723   0.5495
     1.0955   1.2089   2.4317   2.7259   3.2327   3.3879   5.0519

          k = 0.0625 0.3969 0.0000 ( 37981 PWs)   bands (ev):

   -74.8778 -74.8667 -48.1726 -48.1691 -48.1664 -48.1629 -48.1610 -48.1575
   -48.1482 -48.1472 -48.1469 -48.1434 -48.1391 -48.1381 -48.1360 -48.1351
   -48.1327 -48.1245 -48.1183 -48.1167 -48.1158 -48.0991 -39.2265 -39.2111
   -39.0924 -39.0771 -39.0422 -39.0375 -14.1111 -14.0145 -13.7556 -13.6621
    -6.1965  -6.1358  -5.6821  -5.4408  -4.9348  -4.6230  -3.7220  -3.6608
    -3.0509  -2.9285  -2.5019  -2.4556  -1.2970  -1.2322   0.5708   0.8124
     1.3632   1.4650   2.7131   2.8863   3.4256   3.6818   4.7198

          k = 0.0625 0.4691 0.0000 ( 38057 PWs)   bands (ev):

   -74.8764 -74.8653 -48.1726 -48.1685 -48.1664 -48.1623 -48.1610 -48.1570
   -48.1484 -48.1473 -48.1469 -48.1428 -48.1393 -48.1382 -48.1363 -48.1352
   -48.1324 -48.1242 -48.1180 -48.1169 -48.1158 -48.0988 -39.2570 -39.2415
   -39.1006 -39.0853 -39.0357 -39.0310 -13.8668 -13.7953 -13.4692 -13.3942
    -6.8445  -6.7721  -5.7788  -5.5483  -4.7649  -4.6012  -3.8527  -3.7681
    -3.2369  -3.0678  -2.6015  -2.5561  -1.2826  -1.2655   0.9793   1.1408
     1.6273   1.7342   2.9290   3.0564   3.5064   3.7225   4.5984

          k = 0.0625 0.5413 0.0000 ( 38034 PWs)   bands (ev):

   -74.8756 -74.8645 -48.1726 -48.1682 -48.1663 -48.1620 -48.1610 -48.1566
   -48.1486 -48.1474 -48.1469 -48.1425 -48.1394 -48.1382 -48.1364 -48.1352
   -48.1322 -48.1240 -48.1178 -48.1170 -48.1159 -48.0986 -39.2734 -39.2579
   -39.1050 -39.0897 -39.0322 -39.0275 -13.7540 -13.7036 -13.2548 -13.1993
    -7.2365  -7.1790  -5.7070  -5.5759  -4.9138  -4.7448  -3.8345  -3.8074
    -3.1928  -2.9839  -2.6417  -2.6220  -1.3074  -1.2963   1.3346   1.3967
     1.7874   1.8953   3.0412   3.2372   3.3642   3.6722   4.3550

          k = 0.1250 0.2165 0.0000 ( 37933 PWs)   bands (ev):

   -74.8819 -74.8709 -48.1725 -48.1709 -48.1663 -48.1647 -48.1609 -48.1593
   -48.1475 -48.1470 -48.1468 -48.1452 -48.1384 -48.1379 -48.1353 -48.1349
   -48.1336 -48.1254 -48.1192 -48.1160 -48.1155 -48.0999 -39.1344 -39.1191
   -39.0708 -39.0608 -39.0578 -39.0537 -14.9080 -14.7919 -14.2149 -14.0759
    -6.3666  -5.8931  -5.1253  -4.8046  -3.7665  -3.7318  -3.1065  -2.9221
    -2.8998  -2.8551  -1.9878  -1.8558  -1.1599  -0.8502   0.2549   0.2971
     0.6293   0.9356   2.5907   2.6839   2.7268   2.9599   4.5184

          k = 0.1250 0.2887 0.0000 ( 37936 PWs)   bands (ev):

   -74.8801 -74.8690 -48.1724 -48.1702 -48.1662 -48.1640 -48.1608 -48.1586
   -48.1478 -48.1472 -48.1467 -48.1445 -48.1387 -48.1380 -48.1356 -48.1350
   -48.1332 -48.1250 -48.1188 -48.1162 -48.1157 -48.0995 -39.1717 -39.1563
   -39.0845 -39.0693 -39.0525 -39.0477 -14.5581 -14.4455 -14.0450 -13.9250
    -5.9600  -5.5457  -5.3320  -5.0568  -4.5670  -4.5353  -3.5013  -3.3957
    -3.0081  -2.9536  -2.2456  -2.1794  -1.0408  -0.8059   0.0223   0.2141
     1.0121   1.2655   2.3678   2.4075   3.0224   3.3581   5.0022

          k = 0.1250 0.3608 0.0000 ( 38000 PWs)   bands (ev):

   -74.8782 -74.8671 -48.1723 -48.1695 -48.1661 -48.1633 -48.1608 -48.1579
   -48.1481 -48.1473 -48.1466 -48.1438 -48.1390 -48.1382 -48.1359 -48.1352
   -48.1328 -48.1246 -48.1184 -48.1165 -48.1158 -48.0992 -39.2085 -39.1931
   -39.0987 -39.0834 -39.0441 -39.0394 -14.1801 -14.0759 -13.8432 -13.7462
    -5.8478  -5.7264  -5.4742  -5.3284  -5.0725  -4.7029  -3.8744  -3.7914
    -3.1235  -3.0536  -2.6829  -2.6129  -0.9391  -0.7770   0.0985   0.3588
     1.4162   1.5719   2.2785   2.3544   3.3606   3.7438   5.2706

          k = 0.1250 0.4330 0.0000 ( 38048 PWs)   bands (ev):

   -74.8766 -74.8656 -48.1723 -48.1689 -48.1660 -48.1627 -48.1607 -48.1574
   -48.1483 -48.1474 -48.1466 -48.1432 -48.1392 -48.1382 -48.1361 -48.1353
   -48.1325 -48.1243 -48.1181 -48.1168 -48.1159 -48.0988 -39.2394 -39.2239
   -39.1108 -39.0954 -39.0370 -39.0323 -13.8745 -13.7908 -13.5901 -13.5129
    -6.4094  -6.3411  -5.7269  -5.4945  -4.7183  -4.4726  -4.1331  -4.0087
    -3.2593  -3.1865  -3.0313  -2.9882  -0.9325  -0.8290   0.4502   0.6874
     1.7259   1.8043   2.3461   2.4850   3.6251   3.9093   4.9985

          k = 0.1250 0.5052 0.0000 ( 38027 PWs)   bands (ev):

   -74.8756 -74.8645 -48.1722 -48.1685 -48.1660 -48.1623 -48.1606 -48.1570
   -48.1485 -48.1474 -48.1465 -48.1428 -48.1393 -48.1383 -48.1363 -48.1353
   -48.1322 -48.1241 -48.1178 -48.1169 -48.1160 -48.0986 -39.2599 -39.2444
   -39.1189 -39.1035 -39.0322 -39.0275 -13.7104 -13.6535 -13.3282 -13.2693
    -6.9263  -6.8644  -5.7115  -5.5492  -4.7279  -4.5698  -4.1198  -3.9944
    -3.3588  -3.2704  -3.1510  -3.0723  -1.0104  -0.9264   0.9307   1.0940
     1.8183   1.8671   2.5120   2.6829   3.5348   3.8688   4.8858

          k = 0.1250 0.5774 0.0000 ( 37968 PWs)   bands (ev):

   -74.8752 -74.8641 -48.1722 -48.1684 -48.1659 -48.1622 -48.1606 -48.1568
   -48.1485 -48.1475 -48.1465 -48.1426 -48.1394 -48.1383 -48.1364 -48.1354
   -48.1321 -48.1240 -48.1178 -48.1170 -48.1160 -48.0985 -39.2671 -39.2516
   -39.1217 -39.1063 -39.0305 -39.0259 -13.6578 -13.6137 -13.2153 -13.1693
    -7.1159  -7.0614  -5.6538  -5.5789  -4.8321  -4.6607  -4.0764  -4.0016
    -3.3797  -3.2859  -3.1361  -3.0415  -1.0608  -0.9771   1.2826   1.3166
     1.7127   1.7884   2.6442   2.7833   3.4436   3.7378   4.7724

          k = 0.1875 0.3248 0.0000 ( 37987 PWs)   bands (ev):

   -74.8784 -74.8673 -48.1722 -48.1697 -48.1660 -48.1635 -48.1606 -48.1581
   -48.1480 -48.1473 -48.1465 -48.1440 -48.1389 -48.1382 -48.1358 -48.1352
   -48.1328 -48.1247 -48.1184 -48.1165 -48.1158 -48.0992 -39.2004 -39.1850
   -39.1027 -39.0874 -39.0448 -39.0401 -14.2040 -14.0972 -13.8735 -13.7755
    -5.6955  -5.4548  -5.3815  -5.3197  -5.1207  -4.7734  -3.8863  -3.7808
    -3.4147  -3.3758  -2.5496  -2.5105  -0.7298  -0.5144  -0.1446   0.1035
     1.4072   1.6100   2.0925   2.1392   3.3493   3.7557   5.4965

          k = 0.1875 0.3969 0.0000 ( 38014 PWs)   bands (ev):

   -74.8768 -74.8657 -48.1720 -48.1693 -48.1657 -48.1631 -48.1604 -48.1577
   -48.1482 -48.1474 -48.1462 -48.1436 -48.1391 -48.1383 -48.1360 -48.1353
   -48.1325 -48.1243 -48.1181 -48.1167 -48.1159 -48.0989 -39.2251 -39.2096
   -39.1211 -39.1058 -39.0377 -39.0330 -13.8588 -13.7630 -13.6757 -13.6044
    -5.9838  -5.9361  -5.6760  -5.4537  -4.8170  -4.4560  -4.2274  -4.1168
    -3.7685  -3.7106  -2.9767  -2.8873  -0.5422  -0.3843  -0.0098   0.2332
     1.7348   1.8478   2.0145   2.0918   3.6833   4.0266   5.4228

          k = 0.1875 0.4691 0.0000 ( 38010 PWs)   bands (ev):

   -74.8756 -74.8645 -48.1718 -48.1690 -48.1655 -48.1627 -48.1602 -48.1574
   -48.1484 -48.1475 -48.1460 -48.1432 -48.1392 -48.1384 -48.1362 -48.1354
   -48.1322 -48.1241 -48.1179 -48.1168 -48.1161 -48.0986 -39.2430 -39.2276
   -39.1361 -39.1207 -39.0322 -39.0276 -13.6427 -13.5763 -13.4242 -13.3664
    -6.4995  -6.4468  -5.6857  -5.5262  -4.5778  -4.4252  -4.3187  -4.1348
    -4.0289  -3.9338  -3.2504  -3.1941  -0.6087  -0.4805   0.4381   0.6082
     1.8253   1.8739   2.1196   2.2984   3.7822   4.0260   5.2750

          k = 0.1875 0.5413 0.0000 ( 38010 PWs)   bands (ev):

   -74.8749 -74.8639 -48.1717 -48.1688 -48.1654 -48.1626 -48.1601 -48.1572
   -48.1484 -48.1476 -48.1459 -48.1431 -48.1393 -48.1385 -48.1363 -48.1355
   -48.1321 -48.1240 -48.1177 -48.1169 -48.1161 -48.0985 -39.2524 -39.2370
   -39.1444 -39.1290 -39.0293 -39.0246 -13.5482 -13.5056 -13.2354 -13.1946
    -6.8001  -6.7454  -5.6511  -5.5719  -4.6849  -4.5173  -4.2582  -4.1782
    -4.0867  -4.0053  -3.2861  -3.2608  -0.7119  -0.5858   0.9396   1.0256
     1.6013   1.6390   2.3812   2.5258   3.5534   3.8697   5.1796

          k = 0.2500 0.4330 0.0000 ( 38031 PWs)   bands (ev):

   -74.8756 -74.8645 -48.1715 -48.1692 -48.1653 -48.1630 -48.1599 -48.1576
   -48.1483 -48.1476 -48.1458 -48.1435 -48.1392 -48.1385 -48.1362 -48.1355
   -48.1322 -48.1241 -48.1179 -48.1168 -48.1161 -48.0986 -39.2342 -39.2187
   -39.1451 -39.1297 -39.0323 -39.0276 -13.5842 -13.5061 -13.4844 -13.4544
    -6.2297  -6.2124  -5.6723  -5.5259  -4.6230  -4.4262  -4.4149  -4.3117
    -4.2375  -4.0342  -3.3684  -3.2309  -0.2158  -0.0509   0.0106   0.1507
     1.7812   1.8755   2.0135   2.1879   3.9164   4.0790   5.2716

          k = 0.2500 0.5052 0.0000 ( 38019 PWs)   bands (ev):

   -74.8748 -74.8637 -48.1712 -48.1692 -48.1649 -48.1630 -48.1596 -48.1576
   -48.1484 -48.1477 -48.1454 -48.1435 -48.1392 -48.1386 -48.1362 -48.1356
   -48.1321 -48.1240 -48.1177 -48.1168 -48.1162 -48.0984 -39.2364 -39.2210
   -39.1649 -39.1495 -39.0286 -39.0239 -13.4452 -13.3994 -13.2957 -13.2595
    -6.4117  -6.3736  -5.6601  -5.5853  -4.8696  -4.8155  -4.5001  -4.3441
    -4.1198  -3.9817  -3.6055  -3.4908  -0.2483  -0.1053   0.3891   0.4930
     1.5548   1.5628   2.2489   2.5674   3.7223   3.9466   5.0322

          k = 0.2500 0.5774 0.0000 ( 38023 PWs)   bands (ev):

   -74.8745 -74.8634 -48.1710 -48.1693 -48.1647 -48.1630 -48.1594 -48.1577
   -48.1484 -48.1478 -48.1452 -48.1435 -48.1392 -48.1386 -48.1363 -48.1357
   -48.1320 -48.1239 -48.1176 -48.1168 -48.1163 -48.0984 -39.2359 -39.2205
   -39.1731 -39.1577 -39.0274 -39.0227 -13.3995 -13.3696 -13.2126 -13.1870
    -6.4778  -6.4229  -5.6501  -5.6085  -5.0248  -4.9829  -4.4150  -4.2425
    -4.2035  -4.1003  -3.6061  -3.5232  -0.3016  -0.1625   0.7321   0.8483
     1.2106   1.2402   2.5675   2.7162   3.5660   3.7074   4.9258

          k = 0.3125 0.5413 0.0000 ( 38095 PWs)   bands (ev):

   -74.8743 -74.8633 -48.1706 -48.1696 -48.1643 -48.1634 -48.1590 -48.1580
   -48.1483 -48.1478 -48.1449 -48.1439 -48.1392 -48.1387 -48.1362 -48.1357
   -48.1320 -48.1239 -48.1176 -48.1168 -48.1164 -48.0984 -39.2211 -39.2056
   -39.1922 -39.1768 -39.0267 -39.0220 -13.3110 -13.2874 -13.2408 -13.2204
    -6.1649  -6.1213  -5.6710  -5.6409  -5.4599  -5.4116  -4.3932  -4.1990
    -4.0031  -3.9575  -3.9129  -3.7567   0.1073   0.2667   0.3475   0.4874
     1.0679   1.0866   2.6937   3.0310   3.3613   3.6553   4.8403

     the Fermi energy is    -0.0248 ev

!    total energy              =   -3113.97523309 Ry
     total all-electron energy =    -83998.699797 Ry
     estimated scf accuracy    <       0.00000009 Ry
     smearing contrib. (-TS)   =       0.00067670 Ry
     internal energy E=F+TS    =   -3113.97590979 Ry

     The total energy is F=E-TS. E is the sum of the following terms:
     one-electron contribution =  -29043.31649847 Ry
     hartree contribution      =   14508.79008738 Ry
     xc contribution           =    -193.61103078 Ry
     ewald contribution        =   13375.47580925 Ry
     one-center paw contrib.   =   -1761.31427716 Ry

     convergence has been achieved in  41 iterations

     Writing all to output data dir ./tmp/cleave_001/wse2_cleave_001.save/ :
     XML data file, charge density, pseudopotentials, collected wavefunctions

     init_run     :     12.42s CPU     12.63s WALL (       1 calls)
     electrons    :    743.33s CPU    762.79s WALL (       1 calls)

     Called by init_run:
     wfcinit      :      6.08s CPU      6.11s WALL (       1 calls)
     potinit      :      5.71s CPU      5.75s WALL (       1 calls)
     hinit0       :      0.05s CPU      0.06s WALL (       1 calls)

     Called by electrons:
     c_bands      :    612.06s CPU    621.82s WALL (      42 calls)
     sum_band     :     85.79s CPU     90.48s WALL (      42 calls)
     v_of_rho     :     21.93s CPU     23.40s WALL (      42 calls)
     newd         :     16.03s CPU     19.52s WALL (      42 calls)
     PAW_pot      :      2.57s CPU      2.66s WALL (      42 calls)
     mix_rho      :     10.62s CPU     10.73s WALL (      42 calls)
     vdW_kernel   :      5.27s CPU      5.27s WALL (       1 calls)

     Called by c_bands:
     init_us_2    :      4.28s CPU      4.30s WALL (    2550 calls)
     cegterg      :    593.26s CPU    602.49s WALL (    1260 calls)

     Called by *egterg:
     cdiaghg      :     14.79s CPU     14.82s WALL (    4818 calls)
     h_psi        :    252.40s CPU    255.12s WALL (    4878 calls)
     s_psi        :     43.14s CPU     43.19s WALL (    4878 calls)
     g_psi        :      0.66s CPU      0.66s WALL (    3588 calls)

     Called by h_psi:
     h_psi:calbec :     78.99s CPU     80.46s WALL (    4878 calls)
     vloc_psi     :    121.62s CPU    122.81s WALL (    4878 calls)
                                        0.00s GPU  (    4878 calls)
     add_vuspsi   :     51.04s CPU     51.09s WALL (    4878 calls)

     General routines
     calbec       :    114.27s CPU    116.43s WALL (    6138 calls)
     fft          :     11.44s CPU     11.78s WALL (    2645 calls)
     ffts         :      3.90s CPU      3.92s WALL (    5004 calls)
     fftw         :    140.71s CPU    142.14s WALL (  370588 calls)
     interpolate  :      0.19s CPU      0.20s WALL (      42 calls)

     Parallel routines

     PWSCF        :  12m36.35s CPU  12m56.19s WALL


   This run was terminated on:  12:57:54  19Jun2026            

=------------------------------------------------------------------------------=
   JOB DONE.
=------------------------------------------------------------------------------=
Note: The following floating-point exceptions are signalling: IEEE_UNDERFLOW_FLAG IEEE_DENORMAL
Note: The following floating-point exceptions are signalling: IEEE_UNDERFLOW_FLAG IEEE_DENORMAL
Note: The following floating-point exceptions are signalling: IEEE_UNDERFLOW_FLAG IEEE_DENORMAL
Note: The following floating-point exceptions are signalling: IEEE_UNDERFLOW_FLAG IEEE_DENORMAL
Note: The following floating-point exceptions are signalling: IEEE_UNDERFLOW_FLAG IEEE_DENORMAL
Note: The following floating-point exceptions are signalling: IEEE_UNDERFLOW_FLAG IEEE_DENORMAL
Note: The following floating-point exceptions are signalling: IEEE_UNDERFLOW_FLAG IEEE_DENORMAL
Note: The following floating-point exceptions are signalling: IEEE_UNDERFLOW_FLAG IEEE_DENORMAL
Note: The following floating-point exceptions are signalling: IEEE_UNDERFLOW_FLAG IEEE_DENORMAL
Note: The following floating-point exceptions are signalling: IEEE_UNDERFLOW_FLAG IEEE_DENORMAL
Note: The following floating-point exceptions are signalling: IEEE_UNDERFLOW_FLAG IEEE_DENORMAL
Note: The following floating-point exceptions are signalling: IEEE_UNDERFLOW_FLAG IEEE_DENORMAL
Note: The following floating-point exceptions are signalling: IEEE_UNDERFLOW_FLAG IEEE_DENORMAL
Note: The following floating-point exceptions are signalling: IEEE_UNDERFLOW_FLAG IEEE_DENORMAL
Note: The following floating-point exceptions are signalling: IEEE_UNDERFLOW_FLAG IEEE_DENORMAL
Note: The following floating-point exceptions are signalling: IEEE_UNDERFLOW_FLAG IEEE_DENORMAL
Note: The following floating-point exceptions are signalling: IEEE_UNDERFLOW_FLAG IEEE_DENORMAL
Note: The following floating-point exceptions are signalling: IEEE_UNDERFLOW_FLAG IEEE_DENORMAL
Note: The following floating-point exceptions are signalling: IEEE_UNDERFLOW_FLAG IEEE_DENORMAL
Note: The following floating-point exceptions are signalling: IEEE_UNDERFLOW_FLAG IEEE_DENORMAL
Note: The following floating-point exceptions are signalling: IEEE_UNDERFLOW_FLAG IEEE_DENORMAL
Note: The following floating-point exceptions are signalling: IEEE_UNDERFLOW_FLAG IEEE_DENORMAL
Note: The following floating-point exceptions are signalling: IEEE_UNDERFLOW_FLAG IEEE_DENORMAL
Note: The following floating-point exceptions are signalling: IEEE_UNDERFLOW_FLAG IEEE_DENORMAL
