
     Program PWSCF v.7.5 starts on 18Jun2026 at 12:17:57 

     This program is part of the open-source Quantum ESPRESSO suite
     for quantum simulation of materials; please cite
         "P. Giannozzi et al., J. Phys.:Condens. Matter 21 395502 (2009);
         "P. Giannozzi et al., J. Phys.:Condens. Matter 29 465901 (2017);
         "P. Giannozzi et al., J. Chem. Phys. 152 154105 (2020);
          URL http://www.quantum-espresso.org", 
     in publications or presentations arising from this work. More details at
     http://www.quantum-espresso.org/quote

     Parallel version (MPI), running on    12 processors

     MPI processes distributed on     1 nodes
     39320 MiB available memory on the printing compute node when the environment starts

     Waiting for input...
     Reading input from standard input

     Current dimensions of program PWSCF are:
     Max number of different atomic species (ntypx) = 10
     Max number of k-points (npk) =  40000
     Max angular momentum in pseudopotentials (lmaxx) =  4
     file W.pbe-spn-kjpaw_psl.1.0.0.UPF: wavefunction(s)  6S 5P 5D renormalized
     file Se.pbe-dn-kjpaw_psl.1.0.0.UPF: wavefunction(s)  4S 4P 3D renormalized

     IMPORTANT: XC functional enforced from input :
     Exchange-correlation= VDW-DF2-B86R
                           (   1   4  26   0   2   0   0)
     Any further DFT definition will be discarded
     Please, verify this is what you really want


     R & G space division:  proc/nbgrp/npool/nimage =      12
     Subspace diagonalization in iterative solution of the eigenvalue problem:
     a serial algorithm will be used


     Parallelization info
     --------------------
     sticks:   dense  smooth     PW     G-vecs:    dense   smooth      PW
     Min         139      70     21                42907    15188    2331
     Max         140      71     22                42950    15233    2361
     Sum        1675     847    253               515107   182561   28013

     Using Slab Decomposition



     bravais-lattice index     =            4
     lattice parameter (alat)  =       6.1983  a.u.
     unit-cell volume          =    1886.2366 (a.u.)^3
     number of atoms/cell      =            6
     number of atomic types    =            2
     number of electrons       =        92.00
     number of Kohn-Sham states=           55
     kinetic-energy cutoff     =      80.0000  Ry
     charge density cutoff     =     640.0000  Ry
     scf convergence threshold =      1.0E-08
     mixing beta               =       0.3000
     number of iterations used =            8  local-TF  mixing
     energy convergence thresh.=      1.0E-04
     force convergence thresh. =      1.0E-03
     Exchange-correlation= VDW-DF2-B86R
                           (   1   4  26   0   2   0   0)
     nstep                     =           50


     celldm(1)=   6.198302  celldm(2)=   0.000000  celldm(3)=   9.146341
     celldm(4)=   0.000000  celldm(5)=   0.000000  celldm(6)=   0.000000

     crystal axes: (cart. coord. in units of alat)
               a(1) = (   1.000000   0.000000   0.000000 )  
               a(2) = (  -0.500000   0.866025   0.000000 )  
               a(3) = (   0.000000   0.000000   9.146341 )  

     reciprocal axes: (cart. coord. in units 2 pi/alat)
               b(1) = (  1.000000  0.577350 -0.000000 )  
               b(2) = (  0.000000  1.154701  0.000000 )  
               b(3) = (  0.000000 -0.000000  0.109333 )  


     PseudoPot. # 1 for W  read from file:
     ./pseudo/W.pbe-spn-kjpaw_psl.1.0.0.UPF
     MD5 check sum: 03c3df5b60893f488392c7401945500a
     Pseudo is Projector augmented-wave + core cor, Zval = 14.0
     Generated using &quot;atomic&quot; code by A. Dal Corso  v.6.2.2
     Shape of augmentation charge: PSQ
     Using radial grid of 1273 points,  6 beta functions with: 
                l(1) =   0
                l(2) =   0
                l(3) =   1
                l(4) =   1
                l(5) =   2
                l(6) =   2
     Q(r) pseudized with 0 coefficients 


     PseudoPot. # 2 for Se read from file:
     ./pseudo/Se.pbe-dn-kjpaw_psl.1.0.0.UPF
     MD5 check sum: ac240dd2bae32a30e0bf3a38df9c8785
     Pseudo is Projector augmented-wave + core cor, Zval = 16.0
     Generated using &quot;atomic&quot; code by A. Dal Corso  v.6.3
     Shape of augmentation charge: PSQ
     Using radial grid of 1211 points,  6 beta functions with: 
                l(1) =   0
                l(2) =   0
                l(3) =   1
                l(4) =   1
                l(5) =   2
                l(6) =   2
     Q(r) pseudized with 0 coefficients 


     atomic species   valence    mass     pseudopotential
     W                14.00   183.84000     W ( 1.00)
     Se               16.00    78.96000     Se( 1.00)

      6 Sym. Ops. (no inversion) found



   Cartesian axes

     site n.     atom                  positions (alat units)
         1        Se     tau(   1) = (  -0.0000005   0.5773506   0.5853659  )
         2        W      tau(   2) = (   0.0000000   0.0000000   1.0975610  )
         3        Se     tau(   3) = (   0.5000005   0.2886748   1.6097561  )
         4        Se     tau(   4) = (  -0.0000005   0.5773506   2.5518293  )
         5        W      tau(   5) = (   0.5000005   0.2886748   3.0640244  )
         6        Se     tau(   6) = (   0.0000000   0.0000000   3.5762195  )

     number of k points=    30  Methfessel-Paxton smearing, width (Ry)=  0.0200
                       cart. coord. in units 2pi/alat
        k(    1) = (   0.0000000   0.0000000   0.0000000), wk =   0.0078125
        k(    2) = (   0.0000000   0.0721688   0.0000000), wk =   0.0468750
        k(    3) = (   0.0000000   0.1443376   0.0000000), wk =   0.0468750
        k(    4) = (   0.0000000   0.2165064   0.0000000), wk =   0.0468750
        k(    5) = (   0.0000000   0.2886751   0.0000000), wk =   0.0468750
        k(    6) = (   0.0000000   0.3608439   0.0000000), wk =   0.0468750
        k(    7) = (   0.0000000   0.4330127   0.0000000), wk =   0.0468750
        k(    8) = (   0.0000000   0.5051815   0.0000000), wk =   0.0468750
        k(    9) = (   0.0000000  -0.5773503   0.0000000), wk =   0.0234375
        k(   10) = (   0.0625000   0.1082532   0.0000000), wk =   0.0468750
        k(   11) = (   0.0625000   0.1804220   0.0000000), wk =   0.0937500
        k(   12) = (   0.0625000   0.2525907   0.0000000), wk =   0.0937500
        k(   13) = (   0.0625000   0.3247595   0.0000000), wk =   0.0937500
        k(   14) = (   0.0625000   0.3969283   0.0000000), wk =   0.0937500
        k(   15) = (   0.0625000   0.4690971   0.0000000), wk =   0.0937500
        k(   16) = (   0.0625000   0.5412659   0.0000000), wk =   0.0937500
        k(   17) = (   0.1250000   0.2165064   0.0000000), wk =   0.0468750
        k(   18) = (   0.1250000   0.2886751   0.0000000), wk =   0.0937500
        k(   19) = (   0.1250000   0.3608439   0.0000000), wk =   0.0937500
        k(   20) = (   0.1250000   0.4330127   0.0000000), wk =   0.0937500
        k(   21) = (   0.1250000   0.5051815   0.0000000), wk =   0.0937500
        k(   22) = (   0.1250000   0.5773503   0.0000000), wk =   0.0468750
        k(   23) = (   0.1875000   0.3247595   0.0000000), wk =   0.0468750
        k(   24) = (   0.1875000   0.3969283   0.0000000), wk =   0.0937500
        k(   25) = (   0.1875000   0.4690971   0.0000000), wk =   0.0937500
        k(   26) = (   0.1875000   0.5412659   0.0000000), wk =   0.0937500
        k(   27) = (   0.2500000   0.4330127   0.0000000), wk =   0.0468750
        k(   28) = (   0.2500000   0.5051815   0.0000000), wk =   0.0937500
        k(   29) = (   0.2500000   0.5773503   0.0000000), wk =   0.0468750
        k(   30) = (   0.3125000   0.5412659   0.0000000), wk =   0.0468750

     Dense  grid:   515107 G-vectors     FFT dimensions: (  50,  50, 480)

     Smooth grid:   182561 G-vectors     FFT dimensions: (  36,  36, 324)

     Estimated max dynamical RAM per process >     211.08 MB

     Estimated total dynamical RAM >       2.47 GB

     Initial potential from superposition of free atoms

     starting charge      91.9986, renormalised to      92.0000

     negative rho (up, down):  9.809E-05 0.000E+00


     %%%%%%%%%%%%%%%%%%%%%%%%%%%%%%%%%%%%%%%%%%%%%%%%%%%%%%%%%%%%%%%%%%%%%%%%
     %                                                                      %
     % You are using vdW-DF, which was implemented by the Thonhauser group. %
     % Please cite the following two papers that made this development      %
     % possible and the two reviews that describe the various versions:     %
     %                                                                      %
     %   T. Thonhauser et al., PRL 115, 136402 (2015).                      %
     %   T. Thonhauser et al., PRB 76, 125112 (2007).                       %
     %   K. Berland et al., Rep. Prog. Phys. 78, 066501 (2015).             %
     %   D.C. Langreth et al., J. Phys.: Condens. Matter 21, 084203 (2009). %
     %                                                                      %
     % If you are calculating stress with vdW-DF, please also cite:         %
     %                                                                      %
     %   R. Sabatini et al., J. Phys.: Condens. Matter 24, 424209 (2012).   %
     %                                                                      %
     %%%%%%%%%%%%%%%%%%%%%%%%%%%%%%%%%%%%%%%%%%%%%%%%%%%%%%%%%%%%%%%%%%%%%%%%

     %%%%%%%%%%%%%%%%%%%%%%%%%%%%%%%%%%%%%%%%%%%%%%%%%%%%%%%%%%%%%%%%%%%%%%%%
     %                                                                      %
     %  vdW-DF NEWS:                                                        %
     %                                                                      %
     %  * vdW-DF3 is now available. DOI: 10.1021/acs.jctc.0c00471           %
     %    use with input_dft = 'vdW-DF3-opt1' or 'vdW-DF3-opt2'             %
     %                                                                      %
     %  * Unscreened and range-separated hybrid vdW-DF-cx functionals       %
     %    DOI: 10.1063/1.4986522 and 10.1088/1361-648X/ac2ad2               %
     %    use with input_dft = 'vdW-DF-cx0'    and 'vdW-DF-ahcx'            %
     %  * Unscreened and range-separated hybrid vdW-DF2-b86r functionals    %
     %    DOI: 10.1063/1.4986522 and DOI: 10.1103/PhysRevX.12.041003        %
     %    use with input_dft = 'vdW-DF2-br0' and 'vdW-DF2-ahbr'             %
     %                                                                      %
     %%%%%%%%%%%%%%%%%%%%%%%%%%%%%%%%%%%%%%%%%%%%%%%%%%%%%%%%%%%%%%%%%%%%%%%%


     Starting wfcs are   62 randomized atomic wfcs
     Checking if some PAW data can be deallocated... 

     total cpu time spent up to now is       14.0 secs

     per-process dynamical memory:    93.8 Mb

     Self-consistent Calculation

     iteration #  1     ecut=    80.00 Ry     beta= 0.30
     Davidson diagonalization with overlap
     ethr =  1.00E-02,  avg # of iterations =  4.1

     Threshold (ethr) on eigenvalues was too large:
     Diagonalizing with lowered threshold

     Davidson diagonalization with overlap
     ethr =  1.10E-04,  avg # of iterations =  5.7

     negative rho (up, down):  1.102E-05 0.000E+00

     total cpu time spent up to now is       40.7 secs

     total energy              =   -3113.99558208 Ry
     estimated scf accuracy    <       0.12490591 Ry

     iteration #  2     ecut=    80.00 Ry     beta= 0.30
     Davidson diagonalization with overlap
     ethr =  1.36E-04,  avg # of iterations =  1.4

     negative rho (up, down):  6.344E-08 0.000E+00

     total cpu time spent up to now is       51.2 secs

     total energy              =   -3113.96238726 Ry
     estimated scf accuracy    <       0.08642614 Ry

     iteration #  3     ecut=    80.00 Ry     beta= 0.30
     Davidson diagonalization with overlap
     ethr =  9.39E-05,  avg # of iterations =  4.0

     total cpu time spent up to now is       65.0 secs

     total energy              =   -3113.97299545 Ry
     estimated scf accuracy    <       0.00891838 Ry

     iteration #  4     ecut=    80.00 Ry     beta= 0.30
     Davidson diagonalization with overlap
     ethr =  9.69E-06,  avg # of iterations =  5.1

     total cpu time spent up to now is       78.4 secs

     total energy              =   -3113.97286394 Ry
     estimated scf accuracy    <       0.00428157 Ry

     iteration #  5     ecut=    80.00 Ry     beta= 0.30
     Davidson diagonalization with overlap
     ethr =  4.65E-06,  avg # of iterations =  5.6

     total cpu time spent up to now is       91.7 secs

     total energy              =   -3113.97267877 Ry
     estimated scf accuracy    <       0.00196027 Ry

     iteration #  6     ecut=    80.00 Ry     beta= 0.30
     Davidson diagonalization with overlap
     ethr =  2.13E-06,  avg # of iterations =  6.2

     total cpu time spent up to now is      104.3 secs

     total energy              =   -3113.97261932 Ry
     estimated scf accuracy    <       0.00103239 Ry

     iteration #  7     ecut=    80.00 Ry     beta= 0.30
     Davidson diagonalization with overlap
     ethr =  1.12E-06,  avg # of iterations =  3.6

     total cpu time spent up to now is      116.0 secs

     total energy              =   -3113.97254100 Ry
     estimated scf accuracy    <       0.00071763 Ry

     iteration #  8     ecut=    80.00 Ry     beta= 0.30
     Davidson diagonalization with overlap
     ethr =  7.80E-07,  avg # of iterations =  4.7

     negative rho (up, down):  6.381E-07 0.000E+00

     total cpu time spent up to now is      128.4 secs

     total energy              =   -3113.97253449 Ry
     estimated scf accuracy    <       0.00032677 Ry

     iteration #  9     ecut=    80.00 Ry     beta= 0.30
     Davidson diagonalization with overlap
     ethr =  3.55E-07,  avg # of iterations =  3.9

     negative rho (up, down):  8.230E-04 0.000E+00

     total cpu time spent up to now is      140.0 secs

     total energy              =   -3113.97252238 Ry
     estimated scf accuracy    <       0.00023609 Ry

     iteration # 10     ecut=    80.00 Ry     beta= 0.30
     Davidson diagonalization with overlap
     ethr =  2.57E-07,  avg # of iterations =  2.8

     negative rho (up, down):  2.003E-03 0.000E+00

     total cpu time spent up to now is      151.2 secs

     total energy              =   -3113.97248994 Ry
     estimated scf accuracy    <       0.00010191 Ry

     iteration # 11     ecut=    80.00 Ry     beta= 0.30
     Davidson diagonalization with overlap
     ethr =  1.11E-07,  avg # of iterations =  4.9

     negative rho (up, down):  1.065E-03 0.000E+00

     total cpu time spent up to now is      163.5 secs

     total energy              =   -3113.97249597 Ry
     estimated scf accuracy    <       0.00005874 Ry

     iteration # 12     ecut=    80.00 Ry     beta= 0.30
     Davidson diagonalization with overlap
     ethr =  6.39E-08,  avg # of iterations =  2.6

     negative rho (up, down):  2.783E-04 0.000E+00

     total cpu time spent up to now is      174.5 secs

     total energy              =   -3113.97250982 Ry
     estimated scf accuracy    <       0.00004430 Ry

     iteration # 13     ecut=    80.00 Ry     beta= 0.30
     Davidson diagonalization with overlap
     ethr =  4.81E-08,  avg # of iterations =  5.1

     negative rho (up, down):  5.478E-04 0.000E+00

     total cpu time spent up to now is      186.9 secs

     total energy              =   -3113.97251271 Ry
     estimated scf accuracy    <       0.00001825 Ry

     iteration # 14     ecut=    80.00 Ry     beta= 0.30
     Davidson diagonalization with overlap
     ethr =  1.98E-08,  avg # of iterations =  3.3

     negative rho (up, down):  1.813E-04 0.000E+00

     total cpu time spent up to now is      198.7 secs

     total energy              =   -3113.97251524 Ry
     estimated scf accuracy    <       0.00000091 Ry

     iteration # 15     ecut=    80.00 Ry     beta= 0.30
     Davidson diagonalization with overlap
     ethr =  9.88E-10,  avg # of iterations =  4.7

     negative rho (up, down):  1.474E-04 0.000E+00

     total cpu time spent up to now is      212.6 secs

     total energy              =   -3113.97251477 Ry
     estimated scf accuracy    <       0.00000178 Ry

     iteration # 16     ecut=    80.00 Ry     beta= 0.30
     Davidson diagonalization with overlap
     ethr =  9.88E-10,  avg # of iterations =  2.1

     negative rho (up, down):  1.070E-04 0.000E+00

     total cpu time spent up to now is      225.0 secs

     total energy              =   -3113.97251503 Ry
     estimated scf accuracy    <       0.00000011 Ry

     iteration # 17     ecut=    80.00 Ry     beta= 0.30
     Davidson diagonalization with overlap
     ethr =  1.22E-10,  avg # of iterations =  2.5

     negative rho (up, down):  9.957E-05 0.000E+00

     total cpu time spent up to now is      237.8 secs

     total energy              =   -3113.97251573 Ry
     estimated scf accuracy    <       0.00000005 Ry

     iteration # 18     ecut=    80.00 Ry     beta= 0.30
     Davidson diagonalization with overlap
     ethr =  5.96E-11,  avg # of iterations =  2.2

     negative rho (up, down):  1.033E-04 0.000E+00

     total cpu time spent up to now is      249.9 secs

     total energy              =   -3113.97251586 Ry
     estimated scf accuracy    <       0.00000001 Ry

     iteration # 19     ecut=    80.00 Ry     beta= 0.30
     Davidson diagonalization with overlap
     ethr =  1.23E-11,  avg # of iterations =  3.0

     negative rho (up, down):  9.481E-05 0.000E+00

     total cpu time spent up to now is      262.7 secs

     End of self-consistent calculation

          k = 0.0000 0.0000 0.0000 ( 22823 PWs)   bands (ev):

   -71.8218 -71.8101 -45.1554 -45.1554 -45.1441 -45.1441 -45.1413 -45.1413
   -45.1284 -45.1284 -45.1204 -45.1204 -45.1194 -45.1194 -45.1150 -45.1081
   -45.1069 -45.1069 -45.0906 -45.0851 -45.0851 -45.0689 -36.0254 -36.0219
   -36.0035 -36.0035 -35.9869 -35.9868 -12.6981 -12.5495 -11.5572 -11.3397
    -4.3398  -3.7507  -0.8277  -0.5399  -0.5399  -0.5188  -0.5188   0.3427
     1.6319   2.2661   2.2662   2.2804   2.2805   2.3384   3.1125   3.1125
     3.1892   3.1892   6.4984   6.5077   6.5077   6.6256   6.6256

          k = 0.0000 0.0722 0.0000 ( 22785 PWs)   bands (ev):

   -71.8214 -71.8097 -45.1554 -45.1552 -45.1441 -45.1439 -45.1413 -45.1411
   -45.1285 -45.1285 -45.1204 -45.1204 -45.1194 -45.1192 -45.1149 -45.1080
   -45.1069 -45.1069 -45.0905 -45.0851 -45.0851 -45.0688 -36.0235 -36.0200
   -36.0128 -36.0056 -35.9961 -35.9890 -12.6360 -12.4873 -11.5289 -11.3152
    -4.2589  -3.6705  -1.1927  -0.8042  -0.5056  -0.4834  -0.2194   0.5241
     1.5729   1.8116   1.9704   2.0148   2.0422   2.2813   3.1785   3.2911
     3.3381   3.4081   6.1680   6.2805   6.4529   6.5882   6.6426

          k = 0.0000 0.1443 0.0000 ( 22759 PWs)   bands (ev):

   -71.8202 -71.8085 -45.1554 -45.1547 -45.1441 -45.1434 -45.1413 -45.1406
   -45.1287 -45.1285 -45.1206 -45.1204 -45.1194 -45.1187 -45.1147 -45.1077
   -45.1071 -45.1069 -45.0902 -45.0853 -45.0852 -45.0685 -36.0392 -36.0227
   -36.0180 -36.0145 -36.0118 -35.9951 -12.4541 -12.3054 -11.4463 -11.2437
    -4.0236  -3.4390  -1.6697  -1.2806  -0.4231  -0.3972   0.0472   0.5909
     0.9078   0.9967   1.6079   1.6484   1.7578   2.1560   3.1827   3.4921
     3.6672   3.7455   5.6378   5.7410   6.3527   6.5173   6.9259

          k = 0.0000 0.2165 0.0000 ( 22725 PWs)   bands (ev):

   -71.8185 -71.8068 -45.1554 -45.1539 -45.1441 -45.1426 -45.1413 -45.1398
   -45.1290 -45.1286 -45.1208 -45.1205 -45.1194 -45.1179 -45.1143 -45.1074
   -45.1073 -45.1070 -45.0898 -45.0856 -45.0853 -45.0681 -36.0785 -36.0619
   -36.0210 -36.0098 -36.0064 -36.0043 -12.1660 -12.0181 -11.3153 -11.1312
    -3.6632  -3.0941  -2.0891  -1.7291  -0.3983  -0.3585  -0.3407  -0.3253
     0.3699   0.8618   1.2968   1.3480   1.6438   1.8850   3.2195   3.6165
     3.8858   3.9798   5.2776   5.6033   6.3081   6.4979   7.3214

          k = 0.0000 0.2887 0.0000 ( 22763 PWs)   bands (ev):

   -71.8165 -71.8048 -45.1554 -45.1531 -45.1441 -45.1418 -45.1413 -45.1389
   -45.1293 -45.1287 -45.1212 -45.1205 -45.1194 -45.1170 -45.1139 -45.1077
   -45.1072 -45.1069 -45.0894 -45.0860 -45.0854 -45.0677 -36.1246 -36.1079
   -36.0318 -36.0151 -36.0001 -35.9967 -11.7988 -11.6542 -11.1442 -10.9850
    -3.2732  -2.7812  -2.3569  -2.0225  -1.4647  -1.3966  -0.3975  -0.3552
     0.2618   0.6354   1.1804   1.2463   1.3560   1.4984   3.3550   3.7849
     3.9991   4.0967   5.3551   5.9160   6.3431   6.5605   7.8161

          k = 0.0000 0.3608 0.0000 ( 22771 PWs)   bands (ev):

   -71.8144 -71.8027 -45.1554 -45.1522 -45.1441 -45.1413 -45.1409 -45.1380
   -45.1297 -45.1288 -45.1216 -45.1206 -45.1194 -45.1161 -45.1134 -45.1081
   -45.1073 -45.1064 -45.0890 -45.0863 -45.0855 -45.0673 -36.1702 -36.1535
   -36.0425 -36.0259 -35.9905 -35.9870 -11.4056 -11.2712 -10.9339 -10.8034
    -3.1571  -2.9607  -2.5246  -2.3421  -2.1277  -1.7511  -0.5399  -0.4906
    -0.0451   0.2332   1.0399   1.1963   1.2268   1.3169   3.6735   4.0862
     4.0956   4.1755   5.7736   6.4108   6.4166   6.6606   7.9383

          k = 0.0000 0.4330 0.0000 ( 22812 PWs)   bands (ev):

   -71.8127 -71.8010 -45.1555 -45.1514 -45.1442 -45.1413 -45.1402 -45.1373
   -45.1300 -45.1289 -45.1219 -45.1207 -45.1193 -45.1154 -45.1130 -45.1084
   -45.1074 -45.1061 -45.0886 -45.0866 -45.0856 -45.0669 -36.2086 -36.1919
   -36.0517 -36.0350 -35.9822 -35.9788 -11.0868 -10.9780 -10.6649 -10.5590
    -3.6760  -3.5864  -2.8682  -2.5581  -1.8678  -1.6071  -0.7012  -0.6478
    -0.3676  -0.0623   0.8614   1.0023   1.3164   1.4359   4.1365   4.2343
     4.2825   4.4837   6.2844   6.4676   6.7054   6.7481   7.5770

          k = 0.0000 0.5052 0.0000 ( 22836 PWs)   bands (ev):

   -71.8115 -71.7998 -45.1555 -45.1510 -45.1442 -45.1413 -45.1397 -45.1368
   -45.1301 -45.1290 -45.1221 -45.1207 -45.1193 -45.1149 -45.1128 -45.1085
   -45.1074 -45.1058 -45.0884 -45.0868 -45.0857 -45.0667 -36.2342 -36.2174
   -36.0578 -36.0411 -35.9767 -35.9733 -10.9100 -10.8343 -10.3862 -10.3042
    -4.2368  -4.1557  -2.8297  -2.5841  -1.9010  -1.7057  -0.8168  -0.7613
    -0.3644  -0.0095   0.7648   0.8662   1.3770   1.5197   4.3804   4.4035
     4.6333   4.8714   6.3556   6.4997   6.7563   6.8020   7.4330

          k = 0.0000-0.5774 0.0000 ( 22852 PWs)   bands (ev):

   -71.8111 -71.7994 -45.1555 -45.1508 -45.1442 -45.1414 -45.1396 -45.1366
   -45.1302 -45.1290 -45.1222 -45.1207 -45.1193 -45.1147 -45.1127 -45.1086
   -45.1074 -45.1057 -45.0883 -45.0869 -45.0857 -45.0666 -36.2431 -36.2264
   -36.0599 -36.0432 -35.9748 -35.9714 -10.8537 -10.7939 -10.2630 -10.1974
    -4.4443  -4.3779  -2.7219  -2.6101  -2.0129  -1.8198  -0.8579  -0.8018
    -0.2515   0.0718   0.7203   0.8104   1.3963   1.5476   4.4425   4.4619
     4.9055   5.0254   6.3531   6.5095   6.6419   6.8197   7.1731

          k = 0.0625 0.1083 0.0000 ( 22733 PWs)   bands (ev):

   -71.8206 -71.8089 -45.1554 -45.1549 -45.1440 -45.1435 -45.1413 -45.1408
   -45.1286 -45.1285 -45.1205 -45.1204 -45.1193 -45.1188 -45.1147 -45.1078
   -45.1071 -45.1069 -45.0903 -45.0853 -45.0851 -45.0686 -36.0304 -36.0198
   -36.0164 -36.0137 -36.0100 -35.9934 -12.5140 -12.3652 -11.4735 -11.2672
    -4.1004  -3.5142  -1.5429  -1.1477  -0.4536  -0.4313   0.0019   0.6667
     1.1959   1.2027   1.6171   1.6253   1.8425   2.2762   3.2485   3.4942
     3.5195   3.5860   5.8748   5.8991   6.3262   6.4359   6.8433

          k = 0.0625 0.1804 0.0000 ( 22747 PWs)   bands (ev):

   -71.8192 -71.8075 -45.1554 -45.1543 -45.1440 -45.1429 -45.1413 -45.1401
   -45.1289 -45.1286 -45.1207 -45.1204 -45.1194 -45.1182 -45.1144 -45.1075
   -45.1073 -45.1070 -45.0900 -45.0855 -45.0852 -45.0683 -36.0625 -36.0459
   -36.0187 -36.0127 -36.0097 -36.0016 -12.2786 -12.1301 -11.3668 -11.1754
    -3.7988  -3.2204  -1.9482  -1.5754  -0.4379  -0.4094   0.0381   0.2138
     0.4347   0.6983   1.2573   1.3330   1.8171   2.1727   3.3196   3.5302
     3.7075   3.7994   5.5536   5.7248   6.1485   6.2959   7.1757

          k = 0.0625 0.2526 0.0000 ( 22746 PWs)   bands (ev):

   -71.8173 -71.8056 -45.1553 -45.1535 -45.1440 -45.1421 -45.1412 -45.1393
   -45.1292 -45.1287 -45.1210 -45.1205 -45.1193 -45.1174 -45.1140 -45.1076
   -45.1071 -45.1071 -45.0896 -45.0858 -45.0853 -45.0679 -36.1042 -36.0875
   -36.0295 -36.0130 -36.0040 -36.0004 -11.9490 -11.8025 -11.2168 -11.0472
    -3.4032  -2.8565  -2.2792  -1.9372  -1.0176  -0.9654  -0.3382  -0.3208
     0.2735   0.5494   1.0170   1.0934   1.7481   1.9620   3.2814   3.5229
     3.8995   4.0642   5.4425   5.7397   6.1952   6.3355   7.6216

          k = 0.0625 0.3248 0.0000 ( 22774 PWs)   bands (ev):

   -71.8152 -71.8035 -45.1554 -45.1526 -45.1440 -45.1413 -45.1412 -45.1385
   -45.1295 -45.1288 -45.1214 -45.1206 -45.1193 -45.1166 -45.1136 -45.1079
   -45.1072 -45.1066 -45.0891 -45.0862 -45.0855 -45.0675 -36.1490 -36.1323
   -36.0414 -36.0247 -35.9943 -35.9909 -11.5622 -11.4216 -11.0302 -10.8883
    -3.0982  -2.7245  -2.3966  -2.1405  -1.9511  -1.7744  -0.5558  -0.5395
     0.2099   0.4061   0.7004   0.7469   1.6779   1.8170   3.3665   3.6520
     4.1479   4.2891   5.5774   5.8677   6.4034   6.5732   8.1303

          k = 0.0625 0.3969 0.0000 ( 22779 PWs)   bands (ev):

   -71.8133 -71.8017 -45.1554 -45.1518 -45.1440 -45.1412 -45.1405 -45.1377
   -45.1298 -45.1289 -45.1217 -45.1207 -45.1192 -45.1158 -45.1132 -45.1082
   -45.1073 -45.1062 -45.0887 -45.0865 -45.0856 -45.0670 -36.1900 -36.1733
   -36.0523 -36.0356 -35.9854 -35.9820 -11.1939 -11.0701 -10.7977 -10.6837
    -3.2923  -3.2205  -2.7669  -2.4899  -1.9880  -1.6238  -0.7990  -0.7614
    -0.0442   0.1203   0.4746   0.5325   1.6951   1.7727   3.6459   3.8911
     4.4008   4.5317   5.8677   6.0365   6.6211   6.8848   7.8589

          k = 0.0625 0.4691 0.0000 ( 22827 PWs)   bands (ev):

   -71.8119 -71.8002 -45.1554 -45.1512 -45.1441 -45.1412 -45.1400 -45.1371
   -45.1301 -45.1290 -45.1220 -45.1207 -45.1192 -45.1152 -45.1129 -45.1084
   -45.1074 -45.1059 -45.0884 -45.0867 -45.0857 -45.0667 -36.2212 -36.2045
   -36.0606 -36.0440 -35.9785 -35.9751 -10.9493 -10.8584 -10.5112 -10.4194
    -3.9399  -3.8516  -2.8560  -2.5762  -1.7964  -1.6033  -0.9397  -0.8730
    -0.2469  -0.0346   0.3932   0.4537   1.7169   1.7366   4.0225   4.1791
     4.6580   4.7939   6.0692   6.2291   6.6774   6.9244   7.7304

          k = 0.0625 0.5413 0.0000 ( 22828 PWs)   bands (ev):

   -71.8111 -71.7994 -45.1554 -45.1509 -45.1441 -45.1412 -45.1397 -45.1368
   -45.1302 -45.1290 -45.1222 -45.1208 -45.1191 -45.1148 -45.1127 -45.1086
   -45.1075 -45.1057 -45.0883 -45.0868 -45.0857 -45.0666 -36.2380 -36.2213
   -36.0651 -36.0485 -35.9748 -35.9714 -10.8377 -10.7746 -10.2928 -10.2247
    -4.3333  -4.2626  -2.7538  -2.5932  -1.9447  -1.7454  -0.9408  -0.9210
    -0.2060   0.0455   0.3616   0.4015   1.6971   1.7075   4.3369   4.3947
     4.8492   4.9616   6.1709   6.3920   6.4991   6.8195   7.4621

          k = 0.1250 0.2165 0.0000 ( 22763 PWs)   bands (ev):

   -71.8176 -71.8059 -45.1553 -45.1537 -45.1440 -45.1423 -45.1412 -45.1395
   -45.1291 -45.1287 -45.1210 -45.1205 -45.1193 -45.1176 -45.1141 -45.1075
   -45.1071 -45.1071 -45.0896 -45.0858 -45.0853 -45.0679 -36.0957 -36.0790
   -36.0301 -36.0137 -36.0052 -36.0016 -12.0004 -11.8533 -11.2417 -11.0686
    -3.4495  -2.8869  -2.2393  -1.8938  -0.8730  -0.8302  -0.1181  -0.0292
     0.0072   0.1447   0.9896   1.1651   1.9052   2.2193   3.3247   3.3604
     3.6943   4.0603   5.7014   5.8303   5.8654   6.1197   7.5579

          k = 0.1250 0.2887 0.0000 ( 22774 PWs)   bands (ev):

   -71.8157 -71.8040 -45.1552 -45.1530 -45.1439 -45.1417 -45.1411 -45.1388
   -45.1294 -45.1288 -45.1213 -45.1206 -45.1191 -45.1169 -45.1137 -45.1078
   -45.1072 -45.1067 -45.0892 -45.0861 -45.0855 -45.0675 -36.1339 -36.1172
   -36.0443 -36.0277 -35.9964 -35.9929 -11.6451 -11.5017 -11.0799 -10.9320
    -3.0623  -2.5746  -2.4225  -2.1137  -1.6465  -1.6143  -0.5476  -0.4525
    -0.0892  -0.0144   0.7654   0.8518   1.9988   2.2397   3.1041   3.3071
     4.0757   4.3734   5.4747   5.5392   6.1867   6.5396   8.0487

          k = 0.1250 0.3608 0.0000 ( 22790 PWs)   bands (ev):

   -71.8138 -71.8021 -45.1551 -45.1523 -45.1438 -45.1410 -45.1410 -45.1381
   -45.1297 -45.1289 -45.1216 -45.1207 -45.1190 -45.1162 -45.1133 -45.1081
   -45.1074 -45.1063 -45.0888 -45.0863 -45.0856 -45.0671 -36.1715 -36.1549
   -36.0588 -36.0421 -35.9875 -35.9840 -11.2624 -11.1285 -10.8855 -10.7677
    -2.9663  -2.8065  -2.5434  -2.3972  -2.1384  -1.7072  -0.9304  -0.8508
    -0.1851  -0.0960   0.3268   0.4249   2.0861   2.2608   3.1775   3.4586
     4.4652   4.6399   5.3946   5.4907   6.5497   6.9489   8.3936

          k = 0.1250 0.4330 0.0000 ( 22828 PWs)   bands (ev):

   -71.8122 -71.8005 -45.1551 -45.1517 -45.1437 -45.1409 -45.1404 -45.1375
   -45.1299 -45.1290 -45.1219 -45.1208 -45.1189 -45.1156 -45.1130 -45.1083
   -45.1075 -45.1060 -45.0885 -45.0866 -45.0857 -45.0668 -36.2032 -36.1864
   -36.0711 -36.0544 -35.9799 -35.9765 -10.9545 -10.8469 -10.6356 -10.5424
    -3.5013  -3.4198  -2.8218  -2.5462  -1.7670  -1.4789  -1.1929  -1.0672
    -0.3101  -0.2172  -0.0236   0.0416   2.1017   2.2175   3.5096   3.7678
     4.7522   4.8349   5.4690   5.6401   6.8232   7.1119   8.1509

          k = 0.1250 0.5052 0.0000 ( 22815 PWs)   bands (ev):

   -71.8111 -71.7994 -45.1550 -45.1513 -45.1437 -45.1408 -45.1400 -45.1371
   -45.1301 -45.1291 -45.1220 -45.1209 -45.1188 -45.1152 -45.1128 -45.1085
   -45.1075 -45.1058 -45.0883 -45.0867 -45.0858 -45.0666 -36.2241 -36.2074
   -36.0793 -36.0627 -35.9749 -35.9715 -10.7908 -10.7188 -10.3714 -10.2997
    -4.0206  -3.9447  -2.7815  -2.5847  -1.7682  -1.5803  -1.1947  -1.0634
    -0.4008  -0.2842  -0.1447  -0.0543   2.0312   2.1284   3.9667   4.1429
     4.8424   4.8903   5.6323   5.8477   6.6762   7.0681   7.9999

          k = 0.1250 0.5774 0.0000 ( 22796 PWs)   bands (ev):

   -71.8107 -71.7991 -45.1550 -45.1511 -45.1437 -45.1408 -45.1398 -45.1369
   -45.1302 -45.1291 -45.1221 -45.1209 -45.1187 -45.1150 -45.1127 -45.1085
   -45.1076 -45.1057 -45.0882 -45.0868 -45.0858 -45.0665 -36.2315 -36.2148
   -36.0822 -36.0656 -35.9731 -35.9697 -10.7388 -10.6836 -10.2557 -10.1999
    -4.2108  -4.1439  -2.7008  -2.6163  -1.8751  -1.6700  -1.1566  -1.0788
    -0.4150  -0.2885  -0.1402  -0.0240   1.9828   2.0802   4.2970   4.3355
     4.7573   4.8275   5.7573   5.9557   6.5670   6.8958   7.8940

          k = 0.1875 0.3248 0.0000 ( 22779 PWs)   bands (ev):

   -71.8139 -71.8023 -45.1550 -45.1525 -45.1436 -45.1412 -45.1408 -45.1383
   -45.1297 -45.1289 -45.1215 -45.1207 -45.1189 -45.1164 -45.1133 -45.1080
   -45.1074 -45.1064 -45.0889 -45.0863 -45.0856 -45.0672 -36.1632 -36.1465
   -36.0629 -36.0463 -35.9882 -35.9847 -11.2862 -11.1486 -10.9158 -10.7971
    -2.8358  -2.5259  -2.4239  -2.4030  -2.2046  -1.7834  -0.9101  -0.7962
    -0.5115  -0.4627   0.4735   0.5305   2.3019   2.5252   2.9400   3.2166
     4.4633   4.6843   5.1999   5.2569   6.5371   6.9588   8.5523

          k = 0.1875 0.3969 0.0000 ( 22790 PWs)   bands (ev):

   -71.8123 -71.8007 -45.1547 -45.1520 -45.1434 -45.1407 -45.1406 -45.1379
   -45.1299 -45.1291 -45.1218 -45.1209 -45.1186 -45.1160 -45.1130 -45.1082
   -45.1075 -45.1060 -45.0885 -45.0865 -45.0858 -45.0668 -36.1885 -36.1718
   -36.0817 -36.0651 -35.9806 -35.9772 -10.9378 -10.8124 -10.7228 -10.6391
    -3.0685  -3.0183  -2.7867  -2.5305  -1.8763  -1.4632  -1.2601  -1.1353
    -0.8453  -0.7672   0.0367   0.1579   2.5001   2.6688   3.0657   3.3410
     4.7814   4.8635   5.1119   5.2326   6.8891   7.2372   8.5871

          k = 0.1875 0.4691 0.0000 ( 22810 PWs)   bands (ev):

   -71.8111 -71.7994 -45.1545 -45.1517 -45.1432 -45.1404 -45.1404 -45.1375
   -45.1300 -45.1292 -45.1219 -45.1210 -45.1183 -45.1156 -45.1128 -45.1084
   -45.1076 -45.1058 -45.0883 -45.0867 -45.0859 -45.0666 -36.2068 -36.1901
   -36.0970 -36.0803 -35.9749 -35.9715 -10.7191 -10.6335 -10.4729 -10.4045
    -3.5888  -3.5246  -2.7797  -2.5893  -1.6467  -1.4621  -1.3562  -1.1601
    -1.0773  -0.9504  -0.2413  -0.1611   2.4501   2.5946   3.4927   3.6910
     4.8531   4.8828   5.2147   5.4359   6.9593   7.2370   8.4560

          k = 0.1875 0.5413 0.0000 ( 22802 PWs)   bands (ev):

   -71.8105 -71.7988 -45.1544 -45.1515 -45.1431 -45.1402 -45.1402 -45.1373
   -45.1301 -45.1292 -45.1220 -45.1210 -45.1182 -45.1154 -45.1126 -45.1085
   -45.1077 -45.1056 -45.0882 -45.0867 -45.0859 -45.0665 -36.2164 -36.1997
   -36.1056 -36.0889 -35.9718 -35.9684 -10.6245 -10.5711 -10.2813 -10.2329
    -3.8917  -3.8243  -2.7221  -2.6308  -1.7562  -1.5591  -1.3131  -1.2215
    -1.1034  -1.0000  -0.2766  -0.2447   2.3495   2.4951   3.9867   4.0897
     4.6132   4.6570   5.4893   5.6524   6.7068   7.0612   8.3513

          k = 0.2500 0.4330 0.0000 ( 22811 PWs)   bands (ev):

   -71.8111 -71.7994 -45.1543 -45.1519 -45.1430 -45.1406 -45.1401 -45.1378
   -45.1300 -45.1292 -45.1219 -45.1210 -45.1181 -45.1158 -45.1128 -45.1084
   -45.1077 -45.1058 -45.0883 -45.0866 -45.0859 -45.0666 -36.1977 -36.1810
   -36.1063 -36.0896 -35.9749 -35.9715 -10.6617 -10.5541 -10.5342 -10.4999
    -3.3102  -3.2937  -2.7797  -2.6047  -1.6975  -1.4838  -1.4486  -1.3362
    -1.2803  -1.0257  -0.3603  -0.1818   2.8480   3.0034   3.0762   3.2653
     4.8472   4.8839   5.0642   5.3135   7.1189   7.2778   8.4565

          k = 0.2500 0.5052 0.0000 ( 22821 PWs)   bands (ev):

   -71.8103 -71.7986 -45.1539 -45.1519 -45.1426 -45.1407 -45.1397 -45.1378
   -45.1300 -45.1293 -45.1219 -45.1212 -45.1177 -45.1159 -45.1126 -45.1084
   -45.1078 -45.1056 -45.0881 -45.0867 -45.0860 -45.0664 -36.2000 -36.1833
   -36.1266 -36.1099 -35.9711 -35.9677 -10.5172 -10.4579 -10.3472 -10.3063
    -3.4970  -3.4505  -2.7528  -2.6637  -1.9565  -1.8888  -1.5376  -1.3461
    -1.1296  -0.9793  -0.5973  -0.4493   2.8229   2.9828   3.4445   3.5767
     4.5640   4.5856   5.3341   5.6843   6.8784   7.1415   8.2332

          k = 0.2500 0.5774 0.0000 ( 22813 PWs)   bands (ev):

   -71.8100 -71.7983 -45.1538 -45.1520 -45.1425 -45.1407 -45.1396 -45.1378
   -45.1301 -45.1293 -45.1219 -45.1212 -45.1175 -45.1159 -45.1126 -45.1084
   -45.1078 -45.1056 -45.0881 -45.0867 -45.0861 -45.0664 -36.1995 -36.1828
   -36.1349 -36.1182 -35.9697 -35.9663 -10.4699 -10.4328 -10.2628 -10.2348
    -3.5654  -3.4975  -2.7324  -2.6889  -2.1073  -2.0633  -1.4610  -1.2483
    -1.1953  -1.0842  -0.6012  -0.4935   2.7684   2.9281   3.8119   3.9467
     4.1948   4.2309   5.6739   5.8178   6.7334   6.8750   8.1318

          k = 0.3125 0.5413 0.0000 ( 22847 PWs)   bands (ev):

   -71.8099 -71.7982 -45.1534 -45.1523 -45.1421 -45.1410 -45.1392 -45.1381
   -45.1300 -45.1294 -45.1218 -45.1213 -45.1171 -45.1162 -45.1126 -45.1084
   -45.1079 -45.1056 -45.0881 -45.0867 -45.0861 -45.0664 -36.1842 -36.1675
   -36.1546 -36.1379 -35.9690 -35.9656 -10.3776 -10.3479 -10.2939 -10.2738
    -3.2464  -3.1927  -2.7640  -2.7287  -2.5446  -2.4841  -1.4363  -1.1917
    -1.0073  -0.9686  -0.8993  -0.7017   3.1941   3.3727   3.4130   3.5711
     4.0459   4.0867   5.7918   6.1529   6.4870   6.8296   8.0712

     the Fermi energy is     3.0498 ev

!    total energy              =   -3113.97251610 Ry
     total all-electron energy =    -83998.697080 Ry
     estimated scf accuracy    <          6.2E-09 Ry
     smearing contrib. (-TS)   =       0.00061061 Ry
     internal energy E=F+TS    =   -3113.97312671 Ry

     The total energy is F=E-TS. E is the sum of the following terms:
     one-electron contribution =  -11444.56375271 Ry
     hartree contribution      =    5719.65311889 Ry
     xc contribution           =    -193.73614762 Ry
     ewald contribution        =    4565.99586273 Ry
     one-center paw contrib.   =   -1761.32220801 Ry

     convergence has been achieved in  19 iterations

     negative rho (up, down):  9.481E-05 0.000E+00

     Forces acting on atoms (cartesian axes, Ry/au):

     atom    1 type  2   force =     0.00000000    0.00000000   -0.02166760
     atom    2 type  1   force =     0.00000000    0.00000000   -0.00015776
     atom    3 type  2   force =     0.00000000   -0.00000000    0.02203638
     atom    4 type  2   force =     0.00000000    0.00000000   -0.02171146
     atom    5 type  1   force =     0.00000000    0.00000000   -0.00121439
     atom    6 type  2   force =     0.00000000    0.00000000    0.02271484

     Total force =     0.044090     Total SCF correction =     0.000293

     BFGS Geometry Optimization
     Energy error            =      1.9E-03 Ry
     Gradient error          =      2.3E-02 Ry/Bohr

     number of scf cycles    =   1
     number of bfgs steps    =   0

     energy             new  =   -3113.9725161044 Ry

     new trust radius        =       0.0227148383 bohr
     new conv_thr            =       0.0000000100 Ry


ATOMIC_POSITIONS (crystal)
Se               0.3333330000        0.6666670000        0.0636178000
W                0.0000000000        0.0000000000        0.1199972172
Se               0.6666670000        0.3333330000        0.1763887049
Se               0.3333330000        0.6666670000        0.2786170264
W                0.6666670000        0.3333330000        0.3349785790
Se               0.0000000000        0.0000000000        0.3914006725



     Writing config-only to output data dir ./tmp/relax/wse2_relax.save/ :
     XML data file
     NEW-OLD atomic charge density approx. for the potential

     negative rho (up, down):  9.329E-05 0.000E+00

     total cpu time spent up to now is      267.2 secs

     per-process dynamical memory:   111.5 Mb

     Self-consistent Calculation

     iteration #  1     ecut=    80.00 Ry     beta= 0.30
     Davidson diagonalization with overlap
     ethr =  1.00E-06,  avg # of iterations =  5.8

     negative rho (up, down):  9.483E-05 0.000E+00

     total cpu time spent up to now is      293.9 secs

     total energy              =   -3113.97472384 Ry
     estimated scf accuracy    <       0.00084281 Ry

     iteration #  2     ecut=    80.00 Ry     beta= 0.30
     Davidson diagonalization with overlap
     ethr =  9.16E-07,  avg # of iterations =  1.2

     negative rho (up, down):  9.542E-05 0.000E+00

     total cpu time spent up to now is      304.3 secs

     total energy              =   -3113.97417061 Ry
     estimated scf accuracy    <       0.00018707 Ry

     iteration #  3     ecut=    80.00 Ry     beta= 0.30
     Davidson diagonalization with overlap
     ethr =  2.03E-07,  avg # of iterations =  2.0

     negative rho (up, down):  9.483E-05 0.000E+00

     total cpu time spent up to now is      318.8 secs

     total energy              =   -3113.97422428 Ry
     estimated scf accuracy    <       0.00004285 Ry

     iteration #  4     ecut=    80.00 Ry     beta= 0.30
     Davidson diagonalization with overlap
     ethr =  4.66E-08,  avg # of iterations =  1.0

     negative rho (up, down):  9.699E-05 0.000E+00

     total cpu time spent up to now is      329.0 secs

     total energy              =   -3113.97417150 Ry
     estimated scf accuracy    <       0.00003093 Ry

     iteration #  5     ecut=    80.00 Ry     beta= 0.30
     Davidson diagonalization with overlap
     ethr =  3.36E-08,  avg # of iterations =  2.0

     negative rho (up, down):  1.012E-04 0.000E+00

     total cpu time spent up to now is      342.4 secs

     total energy              =   -3113.97414453 Ry
     estimated scf accuracy    <       0.00000433 Ry

     iteration #  6     ecut=    80.00 Ry     beta= 0.30
     Davidson diagonalization with overlap
     ethr =  4.70E-09,  avg # of iterations =  3.0

     negative rho (up, down):  9.793E-05 0.000E+00

     total cpu time spent up to now is      360.3 secs

     total energy              =   -3113.97414887 Ry
     estimated scf accuracy    <       0.00000093 Ry

     iteration #  7     ecut=    80.00 Ry     beta= 0.30
     Davidson diagonalization with overlap
     ethr =  1.01E-09,  avg # of iterations =  2.3

     negative rho (up, down):  9.796E-05 0.000E+00

     total cpu time spent up to now is      375.9 secs

     total energy              =   -3113.97414908 Ry
     estimated scf accuracy    <       0.00000056 Ry

     iteration #  8     ecut=    80.00 Ry     beta= 0.30
     Davidson diagonalization with overlap
     ethr =  6.09E-10,  avg # of iterations =  2.0

     negative rho (up, down):  9.811E-05 0.000E+00

     total cpu time spent up to now is      390.0 secs

     total energy              =   -3113.97414927 Ry
     estimated scf accuracy    <       0.00000026 Ry

     iteration #  9     ecut=    80.00 Ry     beta= 0.30
     Davidson diagonalization with overlap
     ethr =  2.83E-10,  avg # of iterations =  2.0

     negative rho (up, down):  9.817E-05 0.000E+00

     total cpu time spent up to now is      401.9 secs

     total energy              =   -3113.97414912 Ry
     estimated scf accuracy    <       0.00000007 Ry

     iteration # 10     ecut=    80.00 Ry     beta= 0.30
     Davidson diagonalization with overlap
     ethr =  7.67E-11,  avg # of iterations =  2.6

     negative rho (up, down):  9.778E-05 0.000E+00

     total cpu time spent up to now is      416.7 secs

     total energy              =   -3113.97414913 Ry
     estimated scf accuracy    <       0.00000003 Ry

     iteration # 11     ecut=    80.00 Ry     beta= 0.30
     Davidson diagonalization with overlap
     ethr =  2.79E-11,  avg # of iterations =  2.0

     negative rho (up, down):  9.394E-05 0.000E+00

     total cpu time spent up to now is      431.0 secs

     End of self-consistent calculation

          k = 0.0000 0.0000 0.0000 ( 22823 PWs)   bands (ev):

   -71.8276 -71.8145 -45.1512 -45.1512 -45.1382 -45.1382 -45.1370 -45.1370
   -45.1253 -45.1253 -45.1156 -45.1156 -45.1130 -45.1130 -45.1125 -45.1041
   -45.1032 -45.1032 -45.0874 -45.0794 -45.0794 -45.0637 -36.0281 -36.0237
   -36.0020 -36.0020 -35.9837 -35.9837 -12.6657 -12.5076 -11.5546 -11.3285
    -4.3314  -3.7267  -0.8474  -0.4727  -0.4726  -0.4487  -0.4487   0.3390
     1.6017   2.2908   2.2909   2.3070   2.3071   2.3198   3.1330   3.1330
     3.2141   3.2141   6.4606   6.4606   6.4907   6.5826   6.5826

          k = 0.0000 0.0722 0.0000 ( 22785 PWs)   bands (ev):

   -71.8272 -71.8141 -45.1512 -45.1510 -45.1382 -45.1380 -45.1370 -45.1368
   -45.1253 -45.1253 -45.1157 -45.1156 -45.1130 -45.1128 -45.1124 -45.1040
   -45.1033 -45.1032 -45.0873 -45.0794 -45.0794 -45.0636 -36.0262 -36.0218
   -36.0112 -36.0042 -35.9929 -35.9858 -12.6040 -12.4458 -11.5256 -11.3033
    -4.2504  -3.6465  -1.1737  -0.7422  -0.4386  -0.4136  -0.1911   0.5241
     1.5535   1.8306   1.9932   2.0429   2.0722   2.2791   3.1929   3.2999
     3.3537   3.4279   6.1278   6.2444   6.4073   6.5470   6.6343

          k = 0.0000 0.1443 0.0000 ( 22759 PWs)   bands (ev):

   -71.8260 -71.8130 -45.1512 -45.1505 -45.1382 -45.1375 -45.1370 -45.1363
   -45.1255 -45.1253 -45.1159 -45.1157 -45.1129 -45.1122 -45.1121 -45.1037
   -45.1035 -45.1033 -45.0871 -45.0796 -45.0795 -45.0634 -36.0375 -36.0208
   -36.0194 -36.0162 -36.0103 -35.9919 -12.4232 -12.2650 -11.4407 -11.2300
    -4.0151  -3.4151  -1.6360  -1.2211  -0.3571  -0.3284   0.0571   0.5993
     0.9307   1.0100   1.6398   1.6829   1.7451   2.1559   3.1831   3.4868
     3.6744   3.7572   5.6049   5.7104   6.3102   6.4798   6.9204

          k = 0.0000 0.2165 0.0000 ( 22725 PWs)   bands (ev):

   -71.8243 -71.8113 -45.1512 -45.1497 -45.1382 -45.1370 -45.1367 -45.1355
   -45.1258 -45.1254 -45.1162 -45.1158 -45.1130 -45.1117 -45.1114 -45.1038
   -45.1034 -45.1033 -45.0867 -45.0799 -45.0796 -45.0630 -36.0765 -36.0581
   -36.0194 -36.0128 -36.0084 -36.0010 -12.1369 -11.9795 -11.3062 -11.1145
    -3.6545  -3.0701  -2.0495  -1.6716  -0.3725  -0.3130  -0.2952  -0.2590
     0.3705   0.8530   1.3320   1.3862   1.6346   1.8850   3.2063   3.5998
     3.8860   3.9848   5.2504   5.5814   6.2674   6.4631   7.3161

          k = 0.0000 0.2887 0.0000 ( 22763 PWs)   bands (ev):

   -71.8223 -71.8092 -45.1512 -45.1489 -45.1382 -45.1370 -45.1359 -45.1346
   -45.1262 -45.1255 -45.1165 -45.1158 -45.1130 -45.1113 -45.1106 -45.1041
   -45.1035 -45.1029 -45.0863 -45.0803 -45.0797 -45.0626 -36.1222 -36.1038
   -36.0302 -36.0118 -36.0033 -35.9989 -11.7716 -11.6177 -11.1304 -10.9646
    -3.2615  -2.7542  -2.3197  -1.9744  -1.4347  -1.3637  -0.3389  -0.2932
     0.2504   0.6225   1.2179   1.2878   1.3526   1.4985   3.3345   3.7645
     3.9974   4.0993   5.3279   5.8953   6.3010   6.5250   7.8092

          k = 0.0000 0.3608 0.0000 ( 22771 PWs)   bands (ev):

   -71.8202 -71.8072 -45.1512 -45.1480 -45.1383 -45.1370 -45.1350 -45.1337
   -45.1265 -45.1256 -45.1169 -45.1159 -45.1129 -45.1109 -45.1097 -45.1045
   -45.1036 -45.1025 -45.0858 -45.0806 -45.0798 -45.0621 -36.1675 -36.1491
   -36.0409 -36.0225 -35.9937 -35.9894 -11.3798 -11.2364 -10.9153 -10.7796
    -3.1300  -2.9270  -2.5003  -2.3105  -2.0996  -1.7195  -0.4853  -0.4324
    -0.0586   0.2245   1.0380   1.1946   1.2627   1.3582   3.6541   4.0682
     4.0983   4.1813   5.7404   6.3649   6.3883   6.6218   7.8910

          k = 0.0000 0.4330 0.0000 ( 22812 PWs)   bands (ev):

   -71.8185 -71.8055 -45.1513 -45.1473 -45.1383 -45.1370 -45.1343 -45.1330
   -45.1268 -45.1257 -45.1172 -45.1160 -45.1129 -45.1105 -45.1090 -45.1047
   -45.1037 -45.1021 -45.0855 -45.0809 -45.0799 -45.0617 -36.2056 -36.1872
   -36.0500 -36.0316 -35.9857 -35.9813 -11.0593 -10.9431 -10.6446 -10.5344
    -3.6425  -3.5475  -2.8505  -2.5290  -1.8512  -1.5884  -0.6487  -0.5916
    -0.3738  -0.0606   0.8572   0.9978   1.3471   1.4734   4.1214   4.2450
     4.2952   4.4712   6.2421   6.4175   6.6661   6.7055   7.5412

          k = 0.0000 0.5052 0.0000 ( 22836 PWs)   bands (ev):

   -71.8174 -71.8043 -45.1513 -45.1468 -45.1383 -45.1370 -45.1339 -45.1325
   -45.1270 -45.1258 -45.1174 -45.1160 -45.1129 -45.1103 -45.1085 -45.1049
   -45.1038 -45.1018 -45.0852 -45.0811 -45.0799 -45.0615 -36.2309 -36.2125
   -36.0560 -36.0376 -35.9803 -35.9759 -10.8787 -10.7977 -10.3670 -10.2813
    -4.2016  -4.1160  -2.8174  -2.5657  -1.8883  -1.6878  -0.7652  -0.7059
    -0.3639   0.0001   0.7584   0.8597   1.4025   1.5530   4.3981   4.4232
     4.6209   4.8643   6.3255   6.4467   6.7244   6.7566   7.4237

          k = 0.0000-0.5774 0.0000 ( 22852 PWs)   bands (ev):

   -71.8170 -71.8039 -45.1513 -45.1466 -45.1384 -45.1370 -45.1337 -45.1323
   -45.1270 -45.1258 -45.1175 -45.1160 -45.1129 -45.1102 -45.1083 -45.1050
   -45.1038 -45.1018 -45.0852 -45.0812 -45.0800 -45.0614 -36.2398 -36.2213
   -36.0581 -36.0398 -35.9784 -35.9740 -10.8207 -10.7566 -10.2444 -10.1755
    -4.4080  -4.3381  -2.7140  -2.6000  -1.9965  -1.7989  -0.8065  -0.7466
    -0.2480   0.0817   0.7129   0.8031   1.4198   1.5791   4.4629   4.4845
     4.8904   5.0203   6.3477   6.4555   6.6285   6.7733   7.1483

          k = 0.0625 0.1083 0.0000 ( 22733 PWs)   bands (ev):

   -71.8264 -71.8134 -45.1512 -45.1507 -45.1382 -45.1377 -45.1369 -45.1364
   -45.1255 -45.1253 -45.1158 -45.1157 -45.1129 -45.1124 -45.1122 -45.1038
   -45.1034 -45.1033 -45.0872 -45.0796 -45.0794 -45.0634 -36.0287 -36.0226
   -36.0182 -36.0103 -36.0085 -35.9902 -12.4827 -12.3245 -11.4687 -11.2541
    -4.0919  -3.4902  -1.5120  -1.0877  -0.3874  -0.3623   0.0153   0.6659
     1.2143   1.2218   1.6483   1.6560   1.8365   2.2768   3.2540   3.4953
     3.5271   3.5985   5.8401   5.8661   6.2848   6.3983   6.8370

          k = 0.0625 0.1804 0.0000 ( 22747 PWs)   bands (ev):

   -71.8249 -71.8119 -45.1512 -45.1501 -45.1382 -45.1371 -45.1369 -45.1358
   -45.1257 -45.1254 -45.1160 -45.1157 -45.1129 -45.1119 -45.1118 -45.1037
   -45.1035 -45.1034 -45.0869 -45.0798 -45.0795 -45.0631 -36.0606 -36.0422
   -36.0177 -36.0151 -36.0116 -35.9984 -12.2488 -12.0909 -11.3591 -11.1598
    -3.7904  -3.1965  -1.9098  -1.5166  -0.3766  -0.3450   0.0493   0.2389
     0.4586   0.7046   1.2884   1.3547   1.8062   2.1741   3.3149   3.5237
     3.7093   3.7975   5.5259   5.6990   6.1112   6.2631   7.1703

          k = 0.0625 0.2526 0.0000 ( 22746 PWs)   bands (ev):

   -71.8231 -71.8101 -45.1511 -45.1493 -45.1382 -45.1369 -45.1363 -45.1350
   -45.1260 -45.1255 -45.1163 -45.1158 -45.1129 -45.1115 -45.1110 -45.1040
   -45.1035 -45.1031 -45.0865 -45.0801 -45.0796 -45.0627 -36.1020 -36.0836
   -36.0279 -36.0097 -36.0070 -36.0024 -11.9211 -11.7652 -11.2048 -11.0282
    -3.3941  -2.8325  -2.2389  -1.8822  -0.9851  -0.9290  -0.2891  -0.2684
     0.2816   0.5589   1.0426   1.1061   1.7468   1.9666   3.2667   3.5102
     3.8973   4.0579   5.4174   5.7149   6.1615   6.3046   7.6157

          k = 0.0625 0.3248 0.0000 ( 22774 PWs)   bands (ev):

   -71.8210 -71.8080 -45.1512 -45.1484 -45.1382 -45.1369 -45.1355 -45.1342
   -45.1263 -45.1256 -45.1167 -45.1159 -45.1129 -45.1110 -45.1101 -45.1043
   -45.1036 -45.1026 -45.0860 -45.0805 -45.0798 -45.0623 -36.1464 -36.1279
   -36.0397 -36.0213 -35.9975 -35.9932 -11.5362 -11.3864 -11.0133 -10.8656
    -3.0803  -2.6926  -2.3667  -2.1048  -1.9177  -1.7373  -0.5116  -0.4908
     0.2133   0.4058   0.7228   0.7657   1.6888   1.8269   3.3498   3.6407
     4.1462   4.2827   5.5496   5.8376   6.3688   6.5399   8.1133

          k = 0.0625 0.3969 0.0000 ( 22779 PWs)   bands (ev):

   -71.8192 -71.8061 -45.1512 -45.1476 -45.1382 -45.1369 -45.1347 -45.1334
   -45.1266 -45.1257 -45.1170 -45.1160 -45.1128 -45.1106 -45.1093 -45.1046
   -45.1037 -45.1022 -45.0856 -45.0808 -45.0799 -45.0619 -36.1871 -36.1686
   -36.0506 -36.0322 -35.9887 -35.9844 -11.1681 -11.0359 -10.7771 -10.6587
    -3.2591  -3.1847  -2.7456  -2.4570  -1.9675  -1.5990  -0.7610  -0.7158
    -0.0385   0.1199   0.4936   0.5517   1.7102   1.7840   3.6344   3.8870
     4.4035   4.5291   5.8332   6.0004   6.5809   6.8436   7.8163

          k = 0.0625 0.4691 0.0000 ( 22827 PWs)   bands (ev):

   -71.8177 -71.8047 -45.1512 -45.1471 -45.1382 -45.1369 -45.1341 -45.1328
   -45.1269 -45.1258 -45.1173 -45.1160 -45.1128 -45.1103 -45.1087 -45.1048
   -45.1038 -45.1019 -45.0853 -45.0810 -45.0800 -45.0616 -36.2181 -36.1996
   -36.0589 -36.0405 -35.9820 -35.9777 -10.9202 -10.8229 -10.4907 -10.3951
    -3.9058  -3.8124  -2.8395  -2.5506  -1.7828  -1.5863  -0.9006  -0.8262
    -0.2352  -0.0259   0.4051   0.4657   1.7302   1.7471   4.0215   4.1862
     4.6625   4.7944   6.0278   6.1926   6.6349   6.8816   7.7072

          k = 0.0625 0.5413 0.0000 ( 22828 PWs)   bands (ev):

   -71.8170 -71.8039 -45.1512 -45.1467 -45.1382 -45.1369 -45.1338 -45.1324
   -45.1270 -45.1258 -45.1174 -45.1161 -45.1128 -45.1102 -45.1084 -45.1049
   -45.1038 -45.1018 -45.0852 -45.0811 -45.0800 -45.0614 -36.2347 -36.2163
   -36.0633 -36.0450 -35.9784 -35.9741 -10.8054 -10.7378 -10.2734 -10.2021
    -4.2976  -4.2231  -2.7428  -2.5787  -1.9294  -1.7252  -0.8959  -0.8741
    -0.1960   0.0561   0.3695   0.4096   1.7049   1.7214   4.3500   4.4122
     4.8442   4.9606   6.1280   6.3651   6.4670   6.7942   7.4426

          k = 0.1250 0.2165 0.0000 ( 22763 PWs)   bands (ev):

   -71.8234 -71.8103 -45.1511 -45.1495 -45.1381 -45.1369 -45.1365 -45.1352
   -45.1260 -45.1255 -45.1163 -45.1158 -45.1128 -45.1115 -45.1112 -45.1039
   -45.1035 -45.1031 -45.0865 -45.0801 -45.0796 -45.0628 -36.0935 -36.0751
   -36.0285 -36.0106 -36.0082 -36.0034 -11.9723 -11.8157 -11.2303 -11.0501
    -3.4411  -2.8637  -2.1980  -1.8365  -0.8312  -0.7847  -0.1058   0.0138
     0.0518   0.1634   1.0089   1.1695   1.8963   2.2208   3.3175   3.3526
     3.6883   4.0518   5.6693   5.8029   5.8397   6.0960   7.5523

          k = 0.1250 0.2887 0.0000 ( 22774 PWs)   bands (ev):

   -71.8215 -71.8085 -45.1510 -45.1488 -45.1380 -45.1367 -45.1358 -45.1345
   -45.1262 -45.1256 -45.1166 -45.1159 -45.1127 -45.1111 -45.1105 -45.1042
   -45.1036 -45.1027 -45.0861 -45.0804 -45.0798 -45.0624 -36.1314 -36.1130
   -36.0426 -36.0243 -35.9995 -35.9951 -11.6190 -11.4663 -11.0639 -10.9099
    -3.0515  -2.5491  -2.3839  -2.0656  -1.6099  -1.5757  -0.5215  -0.4184
    -0.0547   0.0197   0.7728   0.8519   1.9973   2.2436   3.0923   3.2974
     4.0700   4.3652   5.4469   5.5155   6.1555   6.5108   8.0420

          k = 0.1250 0.3608 0.0000 ( 22790 PWs)   bands (ev):

   -71.8196 -71.8066 -45.1509 -45.1481 -45.1379 -45.1366 -45.1351 -45.1338
   -45.1265 -45.1257 -45.1169 -45.1160 -45.1126 -45.1107 -45.1098 -45.1045
   -45.1037 -45.1023 -45.0857 -45.0806 -45.0799 -45.0620 -36.1688 -36.1504
   -36.0570 -36.0386 -35.9908 -35.9864 -11.2380 -11.0950 -10.8644 -10.7422
    -2.9384  -2.7746  -2.5149  -2.3603  -2.1117  -1.6751  -0.9013  -0.8160
    -0.1586  -0.0662   0.3293   0.4288   2.0891   2.2643   3.1648   3.4501
     4.4641   4.6384   5.3677   5.4652   6.5108   6.9122   8.3553

          k = 0.1250 0.4330 0.0000 ( 22828 PWs)   bands (ev):

   -71.8180 -71.8050 -45.1508 -45.1475 -45.1379 -45.1366 -45.1345 -45.1332
   -45.1268 -45.1258 -45.1171 -45.1161 -45.1125 -45.1104 -45.1092 -45.1047
   -45.1039 -45.1020 -45.0854 -45.0809 -45.0800 -45.0617 -36.2002 -36.1817
   -36.0692 -36.0508 -35.9834 -35.9790 -10.9285 -10.8134 -10.6127 -10.5161
    -3.4684  -3.3818  -2.7995  -2.5127  -1.7508  -1.4602  -1.1620  -1.0287
    -0.2887  -0.1918  -0.0144   0.0472   2.1025   2.2169   3.5022   3.7644
     4.7587   4.8429   5.4379   5.6107   6.7772   7.0688   8.1139

          k = 0.1250 0.5052 0.0000 ( 22815 PWs)   bands (ev):

   -71.8170 -71.8039 -45.1508 -45.1471 -45.1378 -45.1365 -45.1342 -45.1328
   -45.1269 -45.1259 -45.1173 -45.1162 -45.1124 -45.1102 -45.1088 -45.1049
   -45.1039 -45.1018 -45.0852 -45.0810 -45.0801 -45.0614 -36.2210 -36.2025
   -36.0774 -36.0590 -35.9784 -35.9741 -10.7606 -10.6835 -10.3499 -10.2751
    -3.9863  -3.9061  -2.7635  -2.5602  -1.7531  -1.5598  -1.1626  -1.0262
    -0.3844  -0.2629  -0.1329  -0.0442   2.0295   2.1256   3.9669   4.1467
     4.8502   4.9009   5.5981   5.8160   6.6406   7.0299   7.9831

          k = 0.1250 0.5774 0.0000 ( 22796 PWs)   bands (ev):

   -71.8166 -71.8036 -45.1508 -45.1469 -45.1378 -45.1365 -45.1340 -45.1326
   -45.1270 -45.1259 -45.1174 -45.1162 -45.1124 -45.1101 -45.1086 -45.1049
   -45.1039 -45.1017 -45.0851 -45.0811 -45.0801 -45.0613 -36.2283 -36.2098
   -36.0803 -36.0619 -35.9767 -35.9724 -10.7068 -10.6476 -10.2348 -10.1763
    -4.1757  -4.1051  -2.6853  -2.5980  -1.8575  -1.6475  -1.1223  -1.0419
    -0.4013  -0.2699  -0.1273  -0.0136   1.9807   2.0770   4.3057   4.3449
     4.7583   4.8342   5.7219   5.9214   6.5431   6.8686   7.8690

          k = 0.1875 0.3248 0.0000 ( 22779 PWs)   bands (ev):

   -71.8198 -71.8067 -45.1508 -45.1483 -45.1378 -45.1365 -45.1353 -45.1340
   -45.1265 -45.1257 -45.1168 -45.1160 -45.1124 -45.1108 -45.1100 -45.1044
   -45.1038 -45.1024 -45.0858 -45.0806 -45.0799 -45.0620 -36.1606 -36.1421
   -36.0611 -36.0427 -35.9915 -35.9871 -11.2622 -11.1154 -10.8946 -10.7714
    -2.8129  -2.4991  -2.3955  -2.3585  -2.1702  -1.7476  -0.8923  -0.7756
    -0.4714  -0.4209   0.4703   0.5339   2.3012   2.5274   2.9267   3.2059
     4.4598   4.6830   5.1747   5.2374   6.4987   6.9237   8.5430

          k = 0.1875 0.3969 0.0000 ( 22790 PWs)   bands (ev):

   -71.8182 -71.8052 -45.1505 -45.1478 -45.1375 -45.1362 -45.1349 -45.1335
   -45.1267 -45.1259 -45.1170 -45.1162 -45.1122 -45.1104 -45.1095 -45.1046
   -45.1039 -45.1020 -45.0854 -45.0808 -45.0801 -45.0617 -36.1856 -36.1672
   -36.0798 -36.0614 -35.9841 -35.9798 -10.9153 -10.7812 -10.6964 -10.6106
    -3.0371  -2.9837  -2.7571  -2.4891  -1.8594  -1.4389  -1.2391  -1.1081
    -0.8135  -0.7334   0.0361   0.1619   2.4959   2.6654   3.0541   3.3310
     4.7822   4.8756   5.0942   5.2058   6.8437   7.1949   8.5392

          k = 0.1875 0.4691 0.0000 ( 22810 PWs)   bands (ev):

   -71.8170 -71.8039 -45.1503 -45.1475 -45.1374 -45.1360 -45.1346 -45.1332
   -45.1268 -45.1260 -45.1172 -45.1163 -45.1119 -45.1102 -45.1092 -45.1048
   -45.1040 -45.1018 -45.0852 -45.0810 -45.0802 -45.0614 -36.2038 -36.1854
   -36.0950 -36.0765 -35.9784 -35.9741 -10.6926 -10.6006 -10.4478 -10.3770
    -3.5559  -3.4880  -2.7530  -2.5546  -1.6299  -1.4391  -1.3321  -1.1362
    -1.0533  -0.9244  -0.2362  -0.1529   2.4408   2.5866   3.4865   3.6839
     4.8618   4.8979   5.1932   5.4112   6.9143   7.1933   8.4185

          k = 0.1875 0.5413 0.0000 ( 22802 PWs)   bands (ev):

   -71.8163 -71.8033 -45.1502 -45.1473 -45.1373 -45.1359 -45.1344 -45.1330
   -45.1269 -45.1260 -45.1173 -45.1163 -45.1118 -45.1101 -45.1090 -45.1049
   -45.1041 -45.1017 -45.0850 -45.0810 -45.0802 -45.0613 -36.2134 -36.1949
   -36.1034 -36.0850 -35.9754 -35.9711 -10.5942 -10.5368 -10.2578 -10.2070
    -3.8581  -3.7870  -2.6977  -2.6024  -1.7352  -1.5280  -1.2903  -1.2056
    -1.0832  -0.9818  -0.2683  -0.2320   2.3396   2.4866   3.9832   4.0859
     4.6243   4.6684   5.4645   5.6275   6.6723   7.0264   8.3104

          k = 0.2500 0.4330 0.0000 ( 22811 PWs)   bands (ev):

   -71.8170 -71.8039 -45.1501 -45.1477 -45.1371 -45.1358 -45.1348 -45.1334
   -45.1268 -45.1260 -45.1171 -45.1163 -45.1117 -45.1102 -45.1094 -45.1047
   -45.1041 -45.1018 -45.0852 -45.0809 -45.0802 -45.0614 -36.1948 -36.1764
   -36.1041 -36.0857 -35.9784 -35.9741 -10.6397 -10.5263 -10.5022 -10.4696
    -3.2779  -3.2598  -2.7469  -2.5645  -1.6857  -1.4540  -1.4276  -1.3115
    -1.2562  -0.9998  -0.3603  -0.1762   2.8333   2.9974   3.0689   3.2534
     4.8465   4.8997   5.0555   5.2931   7.0701   7.2335   8.4062

          k = 0.2500 0.5052 0.0000 ( 22821 PWs)   bands (ev):

   -71.8161 -71.8031 -45.1497 -45.1478 -45.1368 -45.1354 -45.1348 -45.1335
   -45.1268 -45.1261 -45.1172 -45.1165 -45.1113 -45.1101 -45.1094 -45.1048
   -45.1042 -45.1017 -45.0850 -45.0810 -45.0803 -45.0613 -36.1971 -36.1786
   -36.1242 -36.1058 -35.9747 -35.9704 -10.4899 -10.4260 -10.3201 -10.2776
    -3.4650  -3.4157  -2.7201  -2.6269  -1.9289  -1.8549  -1.5253  -1.3318
    -1.1151  -0.9624  -0.5922  -0.4385   2.8083   2.9716   3.4375   3.5693
     4.5772   4.5940   5.3149   5.6687   6.8371   7.1016   8.1831

          k = 0.2500 0.5774 0.0000 ( 22813 PWs)   bands (ev):

   -71.8159 -71.8028 -45.1496 -45.1478 -45.1366 -45.1352 -45.1348 -45.1335
   -45.1269 -45.1262 -45.1172 -45.1165 -45.1111 -45.1100 -45.1095 -45.1048
   -45.1042 -45.1016 -45.0850 -45.0810 -45.0804 -45.0612 -36.1966 -36.1781
   -36.1326 -36.1141 -35.9733 -35.9691 -10.4404 -10.4005 -10.2368 -10.2066
    -3.5337  -3.4620  -2.7012  -2.6539  -2.0764  -2.0279  -1.4550  -1.2370
    -1.1831  -1.0681  -0.5934  -0.4796   2.7546   2.9172   3.7949   3.9354
     4.2138   4.2498   5.6493   5.7969   6.6985   6.8449   8.0797

          k = 0.3125 0.5413 0.0000 ( 22847 PWs)   bands (ev):

   -71.8157 -71.8027 -45.1492 -45.1481 -45.1362 -45.1352 -45.1349 -45.1338
   -45.1268 -45.1262 -45.1171 -45.1166 -45.1107 -45.1100 -45.1098 -45.1048
   -45.1043 -45.1016 -45.0850 -45.0810 -45.0804 -45.0612 -36.1814 -36.1630
   -36.1521 -36.1336 -35.9726 -35.9683 -10.3499 -10.3180 -10.2660 -10.2426
    -3.2169  -3.1603  -2.7297  -2.6908  -2.5107  -2.4479  -1.4347  -1.1819
    -0.9983  -0.9536  -0.8904  -0.6857   3.1716   3.3538   3.4038   3.5695
     4.0665   4.1007   5.7664   6.1311   6.4526   6.8020   8.0198

     the Fermi energy is     3.0407 ev

!    total energy              =   -3113.97414925 Ry
     total all-electron energy =    -83998.698713 Ry
     estimated scf accuracy    <          2.1E-09 Ry
     smearing contrib. (-TS)   =       0.00065109 Ry
     internal energy E=F+TS    =   -3113.97480034 Ry

     The total energy is F=E-TS. E is the sum of the following terms:
     one-electron contribution =  -11424.78478074 Ry
     hartree contribution      =    5709.77682600 Ry
     xc contribution           =    -193.70116312 Ry
     ewald contribution        =    4556.05398196 Ry
     one-center paw contrib.   =   -1761.31966444 Ry

     convergence has been achieved in  11 iterations

     negative rho (up, down):  9.394E-05 0.000E+00

     Forces acting on atoms (cartesian axes, Ry/au):

     atom    1 type  2   force =     0.00000000   -0.00000000   -0.01498806
     atom    2 type  1   force =     0.00000000    0.00000000   -0.00010447
     atom    3 type  2   force =     0.00000000   -0.00000000    0.01487832
     atom    4 type  2   force =     0.00000000   -0.00000000   -0.01499617
     atom    5 type  1   force =     0.00000000    0.00000000   -0.00021454
     atom    6 type  2   force =     0.00000000    0.00000000    0.01542493

     Total force =     0.030148     Total SCF correction =     0.000198
     Energy error            =      1.6E-03 Ry
     Gradient error          =      1.5E-02 Ry/Bohr

     number of scf cycles    =   2
     number of bfgs steps    =   1

     energy             old  =   -3113.9725161044 Ry
     energy             new  =   -3113.9741492469 Ry

     CASE: energy            _new < energy            _old

     new trust radius        =       0.0249863221 bohr
     new conv_thr            =       0.0000000015 Ry


ATOMIC_POSITIONS (crystal)
Se               0.3333330000        0.6666670000        0.0631895518
W                0.0000000000        0.0000000000        0.1199942319
Se               0.6666670000        0.3333330000        0.1768138293
Se               0.3333330000        0.6666670000        0.2781885457
W                0.6666670000        0.3333330000        0.3349724290
Se               0.0000000000        0.0000000000        0.3918414122



     Writing config-only to output data dir ./tmp/relax/wse2_relax.save/ :
     XML data file
     NEW-OLD atomic charge density approx. for the potential

     negative rho (up, down):  9.194E-05 0.000E+00

     total cpu time spent up to now is      435.5 secs

     per-process dynamical memory:   111.5 Mb

     Self-consistent Calculation

     iteration #  1     ecut=    80.00 Ry     beta= 0.30
     Davidson diagonalization with overlap
     ethr =  1.00E-06,  avg # of iterations =  6.5

     negative rho (up, down):  9.094E-05 0.000E+00

     total cpu time spent up to now is      463.5 secs

     total energy              =   -3113.97600294 Ry
     estimated scf accuracy    <       0.00037783 Ry

     iteration #  2     ecut=    80.00 Ry     beta= 0.30
     Davidson diagonalization with overlap
     ethr =  4.11E-07,  avg # of iterations =  2.0

     negative rho (up, down):  8.975E-05 0.000E+00

     total cpu time spent up to now is      476.8 secs

     total energy              =   -3113.97527169 Ry
     estimated scf accuracy    <       0.00010163 Ry

     iteration #  3     ecut=    80.00 Ry     beta= 0.30
     Davidson diagonalization with overlap
     ethr =  1.10E-07,  avg # of iterations =  3.0

     negative rho (up, down):  8.973E-05 0.000E+00

     total cpu time spent up to now is      491.4 secs

     total energy              =   -3113.97531468 Ry
     estimated scf accuracy    <       0.00001577 Ry

     iteration #  4     ecut=    80.00 Ry     beta= 0.30
     Davidson diagonalization with overlap
     ethr =  1.71E-08,  avg # of iterations =  2.0

     negative rho (up, down):  9.266E-05 0.000E+00

     total cpu time spent up to now is      503.3 secs

     total energy              =   -3113.97523715 Ry
     estimated scf accuracy    <       0.00000923 Ry

     iteration #  5     ecut=    80.00 Ry     beta= 0.30
     Davidson diagonalization with overlap
     ethr =  1.00E-08,  avg # of iterations =  3.0

     negative rho (up, down):  9.413E-05 0.000E+00

     total cpu time spent up to now is      519.8 secs

     total energy              =   -3113.97524058 Ry
     estimated scf accuracy    <       0.00000230 Ry

     iteration #  6     ecut=    80.00 Ry     beta= 0.30
     Davidson diagonalization with overlap
     ethr =  2.50E-09,  avg # of iterations =  2.1

     negative rho (up, down):  9.473E-05 0.000E+00

     total cpu time spent up to now is      535.0 secs

     total energy              =   -3113.97524008 Ry
     estimated scf accuracy    <       0.00000169 Ry

     iteration #  7     ecut=    80.00 Ry     beta= 0.30
     Davidson diagonalization with overlap
     ethr =  1.84E-09,  avg # of iterations =  2.0

     negative rho (up, down):  9.735E-05 0.000E+00

     total cpu time spent up to now is      548.6 secs

     total energy              =   -3113.97523996 Ry
     estimated scf accuracy    <       0.00000036 Ry

     iteration #  8     ecut=    80.00 Ry     beta= 0.30
     Davidson diagonalization with overlap
     ethr =  3.91E-10,  avg # of iterations =  2.0

     negative rho (up, down):  9.751E-05 0.000E+00

     total cpu time spent up to now is      561.6 secs

     total energy              =   -3113.97524005 Ry
     estimated scf accuracy    <       0.00000013 Ry

     iteration #  9     ecut=    80.00 Ry     beta= 0.30
     Davidson diagonalization with overlap
     ethr =  1.37E-10,  avg # of iterations =  2.0

     negative rho (up, down):  9.708E-05 0.000E+00

     total cpu time spent up to now is      574.1 secs

     total energy              =   -3113.97524003 Ry
     estimated scf accuracy    <       0.00000001 Ry

     iteration # 10     ecut=    80.00 Ry     beta= 0.30
     Davidson diagonalization with overlap
     ethr =  1.21E-11,  avg # of iterations =  2.0

     negative rho (up, down):  9.674E-05 0.000E+00

     total cpu time spent up to now is      588.3 secs

     total energy              =   -3113.97524004 Ry
     estimated scf accuracy    <          2.8E-09 Ry

     iteration # 11     ecut=    80.00 Ry     beta= 0.30
     Davidson diagonalization with overlap
     ethr =  3.07E-12,  avg # of iterations =  2.1

     negative rho (up, down):  9.611E-05 0.000E+00

     total cpu time spent up to now is      601.9 secs

     total energy              =   -3113.97524008 Ry
     estimated scf accuracy    <          5.3E-09 Ry

     iteration # 12     ecut=    80.00 Ry     beta= 0.30
     Davidson diagonalization with overlap
     ethr =  3.07E-12,  avg # of iterations =  2.0

     negative rho (up, down):  9.266E-05 0.000E+00

     total cpu time spent up to now is      616.0 secs

     End of self-consistent calculation

          k = 0.0000 0.0000 0.0000 ( 22823 PWs)   bands (ev):

   -71.8344 -71.8198 -45.1463 -45.1463 -45.1318 -45.1318 -45.1311 -45.1311
   -45.1215 -45.1215 -45.1098 -45.1098 -45.1094 -45.1053 -45.1053 -45.0990
   -45.0988 -45.0988 -45.0836 -45.0725 -45.0725 -45.0574 -36.0315 -36.0260
   -36.0011 -36.0010 -35.9807 -35.9807 -12.6309 -12.4618 -11.5517 -11.3156
    -4.3225  -3.7007  -0.8693  -0.3995  -0.3995  -0.3722  -0.3722   0.3355
     1.5690   2.2993   2.3174   2.3174   2.3359   2.3359   3.1554   3.1554
     3.2417   3.2417   6.4091   6.4091   6.4814   6.5358   6.5358

          k = 0.0000 0.0722 0.0000 ( 22785 PWs)   bands (ev):

   -71.8340 -71.8194 -45.1463 -45.1461 -45.1318 -45.1316 -45.1311 -45.1309
   -45.1215 -45.1215 -45.1099 -45.1098 -45.1092 -45.1053 -45.1051 -45.0989
   -45.0988 -45.0988 -45.0835 -45.0726 -45.0725 -45.0573 -36.0297 -36.0241
   -36.0102 -36.0032 -35.9898 -35.9828 -12.5697 -12.4004 -11.5219 -11.2897
    -4.2416  -3.6205  -1.1576  -0.6752  -0.3657  -0.3373  -0.1559   0.5252
     1.5306   1.8495   2.0198   2.0732   2.1049   2.2777   3.2088   3.3098
     3.3704   3.4497   6.0833   6.2044   6.3574   6.5020   6.6249

          k = 0.0000 0.1443 0.0000 ( 22759 PWs)   bands (ev):

   -71.8329 -71.8183 -45.1462 -45.1456 -45.1317 -45.1310 -45.1310 -45.1304
   -45.1217 -45.1215 -45.1101 -45.1099 -45.1090 -45.1053 -45.1046 -45.0991
   -45.0989 -45.0987 -45.0832 -45.0728 -45.0726 -45.0571 -36.0363 -36.0244
   -36.0191 -36.0156 -36.0093 -35.9889 -12.3902 -12.2209 -11.4346 -11.2143
    -4.0063  -3.3891  -1.6014  -1.1562  -0.2852  -0.2531   0.0698   0.6078
     0.9550   1.0258   1.6745   1.7205   1.7319   2.1557   3.1836   3.4812
     3.6818   3.7700   5.5686   5.6764   6.2635   6.4388   6.9140

          k = 0.0000 0.2165 0.0000 ( 22725 PWs)   bands (ev):

   -71.8312 -71.8166 -45.1462 -45.1448 -45.1317 -45.1311 -45.1303 -45.1296
   -45.1220 -45.1216 -45.1104 -45.1100 -45.1086 -45.1053 -45.1038 -45.0993
   -45.0990 -45.0983 -45.0828 -45.0731 -45.0727 -45.0567 -36.0749 -36.0545
   -36.0183 -36.0165 -36.0110 -35.9979 -12.1057 -11.9373 -11.2961 -11.0956
    -3.6454  -3.0442  -2.0074  -1.6087  -0.3447  -0.2826  -0.2261  -0.1863
     0.3724   0.8439   1.3702   1.4282   1.6244   1.8845   3.1918   3.5815
     3.8857   3.9901   5.2201   5.5568   6.2225   6.4248   7.3099

          k = 0.0000 0.2887 0.0000 ( 22763 PWs)   bands (ev):

   -71.8291 -71.8145 -45.1463 -45.1439 -45.1317 -45.1311 -45.1294 -45.1288
   -45.1224 -45.1217 -45.1107 -45.1100 -45.1082 -45.1053 -45.1029 -45.0997
   -45.0991 -45.0979 -45.0824 -45.0734 -45.0728 -45.0563 -36.1202 -36.0998
   -36.0290 -36.0086 -36.0072 -36.0017 -11.7426 -11.5778 -11.1152 -10.9417
    -3.2494  -2.7254  -2.2793  -1.9215  -1.4018  -1.3271  -0.2748  -0.2253
     0.2385   0.6088   1.2586   1.3332   1.3489   1.4983   3.3118   3.7421
     3.9949   4.1020   5.2976   5.8717   6.2545   6.4860   7.8007

          k = 0.0000 0.3608 0.0000 ( 22771 PWs)   bands (ev):

   -71.8271 -71.8125 -45.1463 -45.1431 -45.1318 -45.1311 -45.1285 -45.1279
   -45.1227 -45.1218 -45.1111 -45.1101 -45.1077 -45.1053 -45.1020 -45.1000
   -45.0992 -45.0974 -45.0820 -45.0737 -45.0729 -45.0558 -36.1652 -36.1447
   -36.0397 -36.0193 -35.9979 -35.9924 -11.3521 -11.1985 -10.8951 -10.7532
    -3.1017  -2.8907  -2.4733  -2.2753  -2.0686  -1.6846  -0.4255  -0.3685
    -0.0731   0.2153   1.0361   1.1929   1.3016   1.4036   3.6322   4.0482
     4.1006   4.1873   5.7032   6.3141   6.3562   6.5792   7.8369

          k = 0.0000 0.4330 0.0000 ( 22812 PWs)   bands (ev):

   -71.8254 -71.8108 -45.1464 -45.1423 -45.1318 -45.1312 -45.1278 -45.1272
   -45.1230 -45.1219 -45.1114 -45.1102 -45.1074 -45.1053 -45.1013 -45.1003
   -45.0993 -45.0971 -45.0816 -45.0740 -45.0730 -45.0555 -36.2030 -36.1824
   -36.0487 -36.0283 -35.9899 -35.9845 -11.0298 -10.9049 -10.6224 -10.5073
    -3.6063  -3.5048  -2.8313  -2.4969  -1.8331  -1.5683  -0.5912  -0.5298
    -0.3805  -0.0581   0.8530   0.9932   1.3802   1.5146   4.1040   4.2560
     4.3086   4.4568   6.1950   6.3622   6.6215   6.6588   7.5008

          k = 0.0000 0.5052 0.0000 ( 22836 PWs)   bands (ev):

   -71.8243 -71.8097 -45.1464 -45.1419 -45.1318 -45.1312 -45.1273 -45.1268
   -45.1232 -45.1219 -45.1116 -45.1102 -45.1071 -45.1053 -45.1008 -45.1005
   -45.0993 -45.0968 -45.0814 -45.0742 -45.0731 -45.0552 -36.2281 -36.2075
   -36.0547 -36.0343 -35.9846 -35.9792 -10.8449 -10.7577 -10.3461 -10.2560
    -4.1633  -4.0724  -2.8040  -2.5457  -1.8743  -1.6682  -0.7086  -0.6450
    -0.3634   0.0110   0.7519   0.8528   1.4301   1.5896   4.4167   4.4441
     4.6057   4.8546   6.2923   6.3882   6.6881   6.7068   7.4131

          k = 0.0000-0.5774 0.0000 ( 22852 PWs)   bands (ev):

   -71.8239 -71.8093 -45.1464 -45.1417 -45.1318 -45.1312 -45.1271 -45.1266
   -45.1232 -45.1220 -45.1116 -45.1102 -45.1070 -45.1053 -45.1007 -45.1005
   -45.0994 -45.0967 -45.0813 -45.0743 -45.0731 -45.0551 -36.2369 -36.2163
   -36.0569 -36.0364 -35.9828 -35.9773 -10.7849 -10.7158 -10.2241 -10.1515
    -4.3685  -4.2944  -2.7054  -2.5890  -1.9783  -1.7760  -0.7502  -0.6859
    -0.2443   0.0927   0.7053   0.7954   1.4452   1.6138   4.4844   4.5086
     4.8711   5.0122   6.3426   6.3959   6.6142   6.7224   7.1218

          k = 0.0625 0.1083 0.0000 ( 22733 PWs)   bands (ev):

   -71.8332 -71.8186 -45.1462 -45.1457 -45.1317 -45.1312 -45.1310 -45.1305
   -45.1217 -45.1215 -45.1100 -45.1099 -45.1091 -45.1052 -45.1047 -45.0990
   -45.0988 -45.0988 -45.0833 -45.0727 -45.0726 -45.0571 -36.0275 -36.0262
   -36.0206 -36.0075 -36.0071 -35.9872 -12.4493 -12.2799 -11.4633 -11.2391
    -4.0831  -3.4642  -1.4810  -1.0225  -0.3153  -0.2868   0.0323   0.6657
     1.2309   1.2436   1.6818   1.6895   1.8326   2.2775   3.2601   3.4964
     3.5353   3.6121   5.8016   5.8298   6.2392   6.3572   6.8298

          k = 0.0625 0.1804 0.0000 ( 22747 PWs)   bands (ev):

   -71.8318 -71.8172 -45.1462 -45.1451 -45.1317 -45.1310 -45.1306 -45.1299
   -45.1219 -45.1216 -45.1103 -45.1099 -45.1088 -45.1052 -45.1041 -45.0992
   -45.0989 -45.0985 -45.0830 -45.0729 -45.0727 -45.0568 -36.0591 -36.0387
   -36.0199 -36.0156 -36.0141 -35.9954 -12.2169 -12.0479 -11.3506 -11.1422
    -3.7816  -3.1707  -1.8694  -1.4523  -0.3100  -0.2747   0.0617   0.2662
     0.4859   0.7112   1.3223   1.3795   1.7946   2.1753   3.3098   3.5161
     3.7108   3.7956   5.4954   5.6702   6.0702   6.2269   7.1640

          k = 0.0625 0.2526 0.0000 ( 22746 PWs)   bands (ev):

   -71.8300 -71.8153 -45.1462 -45.1443 -45.1317 -45.1310 -45.1298 -45.1292
   -45.1222 -45.1217 -45.1106 -45.1100 -45.1084 -45.1052 -45.1033 -45.0995
   -45.0990 -45.0981 -45.0826 -45.0732 -45.0728 -45.0564 -36.1002 -36.0797
   -36.0268 -36.0108 -36.0073 -36.0044 -11.8913 -11.7244 -11.1917 -11.0069
    -3.3846  -2.8066  -2.1954  -1.8217  -0.9499  -0.8891  -0.2366  -0.2113
     0.2922   0.5680   1.0706   1.1218   1.7457   1.9716   3.2504   3.4958
     3.8947   4.0510   5.3895   5.6868   6.1241   6.2705   7.6087

          k = 0.0625 0.3248 0.0000 ( 22774 PWs)   bands (ev):

   -71.8279 -71.8133 -45.1462 -45.1435 -45.1317 -45.1310 -45.1289 -45.1283
   -45.1225 -45.1218 -45.1109 -45.1101 -45.1079 -45.1052 -45.1025 -45.0999
   -45.0992 -45.0976 -45.0822 -45.0736 -45.0729 -45.0560 -36.1442 -36.1237
   -36.0385 -36.0181 -36.0016 -35.9960 -11.5084 -11.3480 -10.9948 -10.8402
    -3.0620  -2.6588  -2.3335  -2.0655  -1.8809  -1.6960  -0.4652  -0.4381
     0.2189   0.4050   0.7474   0.7871   1.7013   1.8380   3.3310   3.6278
     4.1441   4.2757   5.5184   5.8037   6.3302   6.5028   8.0889

          k = 0.0625 0.3969 0.0000 ( 22779 PWs)   bands (ev):

   -71.8261 -71.8115 -45.1462 -45.1427 -45.1317 -45.1310 -45.1281 -45.1276
   -45.1228 -45.1219 -45.1112 -45.1102 -45.1075 -45.1052 -45.1017 -45.1001
   -45.0993 -45.0972 -45.0817 -45.0739 -45.0730 -45.0556 -36.1846 -36.1641
   -36.0493 -36.0289 -35.9930 -35.9875 -11.1405 -10.9986 -10.7545 -10.6309
    -3.2236  -3.1457  -2.7222  -2.4206  -1.9450  -1.5720  -0.7216  -0.6665
    -0.0293   0.1206   0.5138   0.5723   1.7271   1.7969   3.6210   3.8817
     4.4060   4.5262   5.7946   5.9602   6.5362   6.7974   7.7683

          k = 0.0625 0.4691 0.0000 ( 22827 PWs)   bands (ev):

   -71.8246 -71.8100 -45.1462 -45.1421 -45.1317 -45.1311 -45.1276 -45.1270
   -45.1231 -45.1220 -45.1115 -45.1102 -45.1072 -45.1051 -45.1011 -45.1004
   -45.0993 -45.0969 -45.0814 -45.0741 -45.0731 -45.0553 -36.2153 -36.1948
   -36.0576 -36.0371 -35.9864 -35.9809 -10.8888 -10.7842 -10.4684 -10.3683
    -3.8688  -3.7693  -2.8217  -2.5225  -1.7681  -1.5679  -0.8594  -0.7750
    -0.2202  -0.0156   0.4179   0.4787   1.7437   1.7605   4.0191   4.1928
     4.6669   4.7940   5.9817   6.1523   6.5878   6.8340   7.6783

          k = 0.0625 0.5413 0.0000 ( 22828 PWs)   bands (ev):

   -71.8239 -71.8093 -45.1462 -45.1418 -45.1317 -45.1311 -45.1272 -45.1267
   -45.1232 -45.1220 -45.1116 -45.1102 -45.1070 -45.1051 -45.1008 -45.1005
   -45.0994 -45.0967 -45.0813 -45.0742 -45.0731 -45.0551 -36.2319 -36.2113
   -36.0620 -36.0416 -35.9828 -35.9773 -10.7704 -10.6975 -10.2523 -10.1772
    -4.2587  -4.1797  -2.7309  -2.5631  -1.9123  -1.7031  -0.8473  -0.8226
    -0.1840   0.0680   0.3780   0.4184   1.7133   1.7374   4.3628   4.4305
     4.8369   4.9575   6.0801   6.3342   6.4335   6.7665   7.4219

          k = 0.1250 0.2165 0.0000 ( 22763 PWs)   bands (ev):

   -71.8302 -71.8156 -45.1461 -45.1445 -45.1316 -45.1310 -45.1300 -45.1294
   -45.1221 -45.1217 -45.1105 -45.1100 -45.1084 -45.1052 -45.1035 -45.0995
   -45.0990 -45.0981 -45.0826 -45.0732 -45.0728 -45.0565 -36.0918 -36.0714
   -36.0275 -36.0120 -36.0088 -36.0048 -11.9422 -11.7747 -11.2179 -11.0293
    -3.4325  -2.8386  -2.1536  -1.7737  -0.7861  -0.7353  -0.0932   0.0617
     0.0996   0.1849   1.0310   1.1755   1.8864   2.2220   3.3091   3.3437
     3.6821   4.0423   5.6340   5.7721   5.8105   6.0697   7.5457

          k = 0.1250 0.2887 0.0000 ( 22774 PWs)   bands (ev):

   -71.8284 -71.8138 -45.1460 -45.1438 -45.1315 -45.1309 -45.1293 -45.1287
   -45.1224 -45.1218 -45.1108 -45.1101 -45.1080 -45.1050 -45.1028 -45.0998
   -45.0992 -45.0977 -45.0822 -45.0735 -45.0729 -45.0561 -36.1294 -36.1089
   -36.0414 -36.0211 -36.0035 -35.9979 -11.5910 -11.4275 -11.0463 -10.8852
    -3.0405  -2.5220  -2.3417  -2.0125  -1.5698  -1.5330  -0.4941  -0.3826
    -0.0165   0.0583   0.7817   0.8536   1.9953   2.2476   3.0790   3.2866
     4.0636   4.3561   5.4157   5.4891   6.1205   6.4785   8.0340

          k = 0.1250 0.3608 0.0000 ( 22790 PWs)   bands (ev):

   -71.8265 -71.8119 -45.1460 -45.1431 -45.1314 -45.1308 -45.1286 -45.1280
   -45.1227 -45.1219 -45.1111 -45.1102 -45.1076 -45.1049 -45.1021 -45.1000
   -45.0993 -45.0973 -45.0818 -45.0738 -45.0730 -45.0557 -36.1665 -36.1460
   -36.0557 -36.0352 -35.9950 -35.9895 -11.2118 -11.0585 -10.8414 -10.7139
    -2.9091  -2.7404  -2.4835  -2.3194  -2.0820  -1.6396  -0.8704  -0.7787
    -0.1298  -0.0332   0.3331   0.4345   2.0922   2.2678   3.1505   3.4405
     4.4623   4.6363   5.3375   5.4370   6.4673   6.8709   8.3091

          k = 0.1250 0.4330 0.0000 ( 22828 PWs)   bands (ev):

   -71.8249 -71.8103 -45.1459 -45.1426 -45.1313 -45.1307 -45.1280 -45.1274
   -45.1229 -45.1220 -45.1113 -45.1103 -45.1073 -45.1048 -45.1015 -45.1003
   -45.0994 -45.0970 -45.0815 -45.0740 -45.0731 -45.0554 -36.1976 -36.1771
   -36.0678 -36.0474 -35.9877 -35.9822 -10.9006 -10.7767 -10.5876 -10.4870
    -3.4328  -3.3402  -2.7756  -2.4759  -1.7331  -1.4402  -1.1287  -0.9866
    -0.2656  -0.1641  -0.0028   0.0546   2.1031   2.2159   3.4935   3.7601
     4.7645   4.8507   5.4037   5.5783   6.7260   7.0206   8.0712

          k = 0.1250 0.5052 0.0000 ( 22815 PWs)   bands (ev):

   -71.8239 -71.8093 -45.1459 -45.1422 -45.1313 -45.1307 -45.1276 -45.1270
   -45.1231 -45.1221 -45.1115 -45.1103 -45.1071 -45.1048 -45.1011 -45.1004
   -45.0995 -45.0968 -45.0813 -45.0742 -45.0732 -45.0551 -36.2183 -36.1977
   -36.0760 -36.0555 -35.9828 -35.9774 -10.7280 -10.6449 -10.3265 -10.2479
    -3.9489  -3.8637  -2.7442  -2.5337  -1.7367  -1.5377  -1.1275  -0.9850
    -0.3666  -0.2394  -0.1190  -0.0322   2.0275   2.1223   3.9662   4.1498
     4.8566   4.9108   5.5610   5.7811   6.6013   6.9874   7.9635

          k = 0.1250 0.5774 0.0000 ( 22796 PWs)   bands (ev):

   -71.8235 -71.8089 -45.1458 -45.1420 -45.1313 -45.1307 -45.1274 -45.1269
   -45.1232 -45.1221 -45.1116 -45.1104 -45.1070 -45.1047 -45.1009 -45.1005
   -45.0995 -45.0967 -45.0812 -45.0742 -45.0732 -45.0551 -36.2255 -36.2049
   -36.0788 -36.0584 -35.9811 -35.9757 -10.6721 -10.6082 -10.2122 -10.1504
    -4.1374  -4.0626  -2.6689  -2.5783  -1.8381  -1.6229  -1.0848  -1.0010
    -0.3862  -0.2491  -0.1122  -0.0018   1.9784   2.0733   4.3139   4.3543
     4.7570   4.8398   5.6834   5.8834   6.5171   6.8389   7.8414

          k = 0.1875 0.3248 0.0000 ( 22779 PWs)   bands (ev):

   -71.8267 -71.8121 -45.1458 -45.1433 -45.1313 -45.1306 -45.1288 -45.1282
   -45.1227 -45.1219 -45.1110 -45.1102 -45.1076 -45.1048 -45.1023 -45.1000
   -45.0993 -45.0974 -45.0819 -45.0737 -45.0730 -45.0557 -36.1583 -36.1378
   -36.0597 -36.0393 -35.9957 -35.9901 -11.2366 -11.0792 -10.8714 -10.7428
    -2.7895  -2.4707  -2.3640  -2.3096  -2.1320  -1.7076  -0.8727  -0.7537
    -0.4278  -0.3747   0.4677   0.5387   2.2998   2.5292   2.9122   3.1940
     4.4553   4.6810   5.1464   5.2158   6.4556   6.8843   8.5308

          k = 0.1875 0.3969 0.0000 ( 22790 PWs)   bands (ev):

   -71.8251 -71.8105 -45.1456 -45.1429 -45.1310 -45.1304 -45.1283 -45.1278
   -45.1229 -45.1221 -45.1112 -45.1104 -45.1073 -45.1045 -45.1019 -45.1002
   -45.0995 -45.0970 -45.0815 -45.0739 -45.0732 -45.0554 -36.1832 -36.1626
   -36.0783 -36.0578 -35.9884 -35.9829 -10.8911 -10.7473 -10.6677 -10.5790
    -3.0031  -2.9457  -2.7254  -2.4439  -1.8407  -1.4121  -1.2161  -1.0788
    -0.7785  -0.6957   0.0363   0.1673   2.4903   2.6610   3.0415   3.3198
     4.7795   4.8879   5.0767   5.1763   6.7930   7.1476   8.4830

          k = 0.1875 0.4691 0.0000 ( 22810 PWs)   bands (ev):

   -71.8239 -71.8093 -45.1454 -45.1426 -45.1308 -45.1302 -45.1280 -45.1275
[...]
     4.1023   4.1927   5.6664   6.2647   6.3238   6.5376   7.7831

          k = 0.0000 0.4330 0.0000 ( 22812 PWs)   bands (ev):

   -71.8326 -71.8164 -45.1419 -45.1379 -45.1270 -45.1243 -45.1230 -45.1204
   -45.1197 -45.1186 -45.1060 -45.1047 -45.1047 -45.0982 -45.0963 -45.0953
   -45.0942 -45.0924 -45.0782 -45.0678 -45.0667 -45.0498 -36.2010 -36.1784
   -36.0481 -36.0256 -35.9945 -35.9879 -11.0016 -10.8678 -10.6007 -10.4806
    -3.5714  -3.4632  -2.8125  -2.4654  -1.8153  -1.5491  -0.5353  -0.4694
    -0.3865  -0.0551   0.8494   0.9889   1.4121   1.5548   4.0864   4.2661
     4.3211   4.4420   6.1487   6.3085   6.5771   6.6132   7.4604

          k = 0.0000 0.5052 0.0000 ( 22836 PWs)   bands (ev):

   -71.8315 -71.8153 -45.1419 -45.1374 -45.1270 -45.1244 -45.1225 -45.1200
   -45.1198 -45.1186 -45.1061 -45.1047 -45.1044 -45.0982 -45.0965 -45.0954
   -45.0937 -45.0921 -45.0780 -45.0679 -45.0668 -45.0495 -36.2260 -36.2033
   -36.0541 -36.0316 -35.9893 -35.9827 -10.8124 -10.7188 -10.3257 -10.2313
    -4.1261  -4.0299  -2.7908  -2.5262  -1.8604  -1.6491  -0.6536  -0.5854
    -0.3626   0.0221   0.7461   0.8465   1.4567   1.6253   4.4339   4.4639
     4.5895   4.8432   6.2599   6.3315   6.6514   6.6584   7.4002

          k = 0.0000-0.5774 0.0000 ( 22852 PWs)   bands (ev):

   -71.8311 -71.8149 -45.1419 -45.1372 -45.1270 -45.1244 -45.1223 -45.1199
   -45.1198 -45.1186 -45.1062 -45.1047 -45.1044 -45.0982 -45.0966 -45.0954
   -45.0936 -45.0920 -45.0779 -45.0680 -45.0668 -45.0495 -36.2347 -36.2120
   -36.0562 -36.0337 -35.9875 -35.9809 -10.7504 -10.6761 -10.2044 -10.1280
    -4.3302  -4.2517  -2.6969  -2.5782  -1.9601  -1.7537  -0.6955  -0.6265
    -0.2403   0.1036   0.6986   0.7883   1.4698   1.6477   4.5044   4.5313
     4.8499   5.0017   6.3381   6.3384   6.6008   6.6730   7.0958

          k = 0.0625 0.1083 0.0000 ( 22733 PWs)   bands (ev):

   -71.8404 -71.8242 -45.1417 -45.1412 -45.1269 -45.1264 -45.1242 -45.1237
   -45.1183 -45.1182 -45.1065 -45.1045 -45.1044 -45.0981 -45.0976 -45.0950
   -45.0949 -45.0941 -45.0799 -45.0664 -45.0663 -45.0515 -36.0301 -36.0269
   -36.0234 -36.0072 -36.0045 -35.9847 -12.4173 -12.2367 -11.4577 -11.2239
    -4.0746  -3.4394  -1.4535  -0.9598  -0.2457  -0.2136   0.0514   0.6659
     1.2439   1.2647   1.7137   1.7211   1.8324   2.2783   3.2662   3.4974
     3.5433   3.6252   5.7642   5.7944   6.1951   6.3174   6.8222

          k = 0.0625 0.1804 0.0000 ( 22747 PWs)   bands (ev):

   -71.8390 -71.8228 -45.1417 -45.1406 -45.1269 -45.1258 -45.1242 -45.1231
   -45.1186 -45.1183 -45.1062 -45.1047 -45.1045 -45.0981 -45.0970 -45.0953
   -45.0950 -45.0938 -45.0796 -45.0667 -45.0664 -45.0512 -36.0583 -36.0359
   -36.0238 -36.0170 -36.0153 -35.9929 -12.1865 -12.0063 -11.3419 -11.1245
    -3.7731  -3.1461  -1.8315  -1.3901  -0.2462  -0.2069   0.0743   0.2925
     0.5136   0.7175   1.3548   1.4046   1.7836   2.1762   3.3049   3.5085
     3.7120   3.7938   5.4655   5.6417   6.0303   6.1918   7.1573

          k = 0.0625 0.2526 0.0000 ( 22746 PWs)   bands (ev):

   -71.8371 -71.8209 -45.1417 -45.1398 -45.1269 -45.1250 -45.1242 -45.1223
   -45.1189 -45.1184 -45.1058 -45.1050 -45.1045 -45.0981 -45.0962 -45.0956
   -45.0951 -45.0934 -45.0792 -45.0670 -45.0665 -45.0508 -36.0990 -36.0765
   -36.0264 -36.0150 -36.0088 -36.0034 -11.8629 -11.6849 -11.1787 -10.9857
    -3.3756  -2.7819  -2.1537  -1.7631  -0.9160  -0.8505  -0.1873  -0.1560
     0.3050   0.5758   1.0977   1.1388   1.7451   1.9765   3.2345   3.4815
     3.8920   4.0441   5.3620   5.6588   6.0877   6.2372   7.6012

          k = 0.0625 0.3248 0.0000 ( 22774 PWs)   bands (ev):

   -71.8351 -71.8189 -45.1417 -45.1390 -45.1269 -45.1242 -45.1242 -45.1215
   -45.1192 -45.1185 -45.1057 -45.1051 -45.1046 -45.0981 -45.0959 -45.0954
   -45.0952 -45.0929 -45.0788 -45.0673 -45.0666 -45.0503 -36.1427 -36.1202
   -36.0379 -36.0155 -36.0060 -35.9992 -11.4820 -11.3107 -10.9766 -10.8153
    -3.0449  -2.6270  -2.3009  -2.0268  -1.8448  -1.6555  -0.4225  -0.3877
     0.2270   0.4043   0.7711   0.8083   1.7142   1.8493   3.3124   3.6147
     4.1417   4.2689   5.4875   5.7701   6.2922   6.4663   8.0609

          k = 0.0625 0.3969 0.0000 ( 22779 PWs)   bands (ev):

   -71.8333 -71.8171 -45.1417 -45.1382 -45.1269 -45.1242 -45.1234 -45.1208
   -45.1195 -45.1186 -45.1058 -45.1048 -45.1046 -45.0980 -45.0962 -45.0953
   -45.0946 -45.0925 -45.0783 -45.0676 -45.0667 -45.0499 -36.1828 -36.1602
   -36.0487 -36.0262 -35.9975 -35.9909 -11.1142 -10.9624 -10.7324 -10.6036
    -3.1897  -3.1080  -2.6992  -2.3848  -1.9227  -1.5461  -0.6859  -0.6192
    -0.0171   0.1225   0.5331   0.5919   1.7440   1.8101   3.6074   3.8757
     4.4081   4.5231   5.7565   5.9207   6.4922   6.7517   7.7208

          k = 0.0625 0.4691 0.0000 ( 22827 PWs)   bands (ev):

   -71.8318 -71.8156 -45.1417 -45.1377 -45.1269 -45.1242 -45.1228 -45.1202
   -45.1197 -45.1186 -45.1060 -45.1047 -45.1045 -45.0980 -45.0964 -45.0954
   -45.0940 -45.0922 -45.0780 -45.0679 -45.0668 -45.0496 -36.2133 -36.1907
   -36.0569 -36.0344 -35.9910 -35.9844 -10.8587 -10.7465 -10.4466 -10.3420
    -3.8330  -3.7273  -2.8041  -2.4952  -1.7537  -1.5501  -0.8213  -0.7253
    -0.2032  -0.0050   0.4304   0.4911   1.7555   1.7757   4.0156   4.1982
     4.6707   4.7927   5.9366   6.1129   6.5417   6.7871   7.6470

          k = 0.0625 0.5413 0.0000 ( 22828 PWs)   bands (ev):

   -71.8311 -71.8149 -45.1417 -45.1374 -45.1269 -45.1242 -45.1225 -45.1199
   -45.1199 -45.1187 -45.1062 -45.1047 -45.1043 -45.0980 -45.0965 -45.0954
   -45.0937 -45.0921 -45.0779 -45.0680 -45.0668 -45.0495 -36.2297 -36.2071
   -36.0613 -36.0388 -35.9875 -35.9809 -10.7367 -10.6584 -10.2319 -10.1529
    -4.2210  -4.1374  -2.7193  -2.5480  -1.8953  -1.6815  -0.8007  -0.7726
    -0.1709   0.0799   0.3863   0.4270   1.7217   1.7537   4.3737   4.4473
     4.8280   4.9525   6.0331   6.3022   6.4033   6.7394   7.4022

          k = 0.1250 0.2165 0.0000 ( 22763 PWs)   bands (ev):

   -71.8374 -71.8212 -45.1416 -45.1400 -45.1268 -45.1252 -45.1241 -45.1225
   -45.1188 -45.1184 -45.1059 -45.1049 -45.1045 -45.0980 -45.0964 -45.0955
   -45.0951 -45.0934 -45.0792 -45.0669 -45.0665 -45.0508 -36.0907 -36.0682
   -36.0270 -36.0161 -36.0104 -36.0036 -11.9135 -11.7349 -11.2055 -11.0086
    -3.4241  -2.8147  -2.1113  -1.7128  -0.7430  -0.6877  -0.0813   0.1090
     0.1428   0.2090   1.0536   1.1827   1.8765   2.2228   3.3007   3.3349
     3.6761   4.0330   5.5995   5.7417   5.7817   6.0436   7.5386

          k = 0.1250 0.2887 0.0000 ( 22774 PWs)   bands (ev):

   -71.8356 -71.8194 -45.1415 -45.1393 -45.1267 -45.1245 -45.1240 -45.1218
   -45.1191 -45.1185 -45.1057 -45.1051 -45.1046 -45.0979 -45.0958 -45.0957
   -45.0952 -45.0930 -45.0788 -45.0672 -45.0666 -45.0504 -36.1280 -36.1055
   -36.0408 -36.0185 -36.0079 -36.0010 -11.5645 -11.3900 -11.0290 -10.8608
    -3.0300  -2.4966  -2.3009  -1.9607  -1.5308  -1.4912  -0.4689  -0.3494
     0.0212   0.0968   0.7912   0.8570   1.9931   2.2513   3.0660   3.2759
     4.0574   4.3469   5.3850   5.4630   6.0859   6.4463   8.0253

          k = 0.1250 0.3608 0.0000 ( 22790 PWs)   bands (ev):

   -71.8337 -71.8175 -45.1415 -45.1387 -45.1266 -45.1239 -45.1238 -45.1212
   -45.1194 -45.1186 -45.1057 -45.1049 -45.1046 -45.0978 -45.0961 -45.0953
   -45.0950 -45.0926 -45.0784 -45.0675 -45.0667 -45.0500 -36.1648 -36.1423
   -36.0550 -36.0325 -35.9995 -35.9928 -11.1869 -11.0231 -10.8189 -10.6860
    -2.8817  -2.7079  -2.4527  -2.2791  -2.0525  -1.6050  -0.8414  -0.7432
    -0.1016  -0.0007   0.3382   0.4415   2.0950   2.2711   3.1364   3.4308
     4.4599   4.6336   5.3076   5.4094   6.4242   6.8299   8.2608

          k = 0.1250 0.4330 0.0000 ( 22828 PWs)   bands (ev):

   -71.8321 -71.8159 -45.1414 -45.1381 -45.1266 -45.1239 -45.1232 -45.1206
   -45.1196 -45.1187 -45.1059 -45.1049 -45.1045 -45.0977 -45.0963 -45.0954
   -45.0944 -45.0923 -45.0781 -45.0677 -45.0669 -45.0497 -36.1957 -36.1731
   -36.0670 -36.0446 -35.9923 -35.9857 -10.8739 -10.7412 -10.5632 -10.4585
    -3.3984  -3.2996  -2.7523  -2.4401  -1.7156  -1.4212  -1.0970  -0.9456
    -0.2434  -0.1373   0.0103   0.0633   2.1037   2.2148   3.4846   3.7553
     4.7686   4.8571   5.3705   5.5469   6.6756   6.9730   8.0277

          k = 0.1250 0.5052 0.0000 ( 22815 PWs)   bands (ev):

   -71.8311 -71.8149 -45.1414 -45.1377 -45.1265 -45.1239 -45.1228 -45.1202
   -45.1198 -45.1187 -45.1061 -45.1049 -45.1043 -45.0976 -45.0965 -45.0955
   -45.0940 -45.0921 -45.0779 -45.0679 -45.0669 -45.0495 -36.2162 -36.1936
   -36.0751 -36.0526 -35.9876 -35.9809 -10.6966 -10.6074 -10.3038 -10.2214
    -3.9126  -3.8224  -2.7254  -2.5082  -1.7207  -1.5164  -1.0936  -0.9446
    -0.3491  -0.2163  -0.1044  -0.0196   2.0256   2.1189   3.9647   4.1520
     4.8607   4.9187   5.5255   5.7472   6.5630   6.9454   7.9429

          k = 0.1250 0.5774 0.0000 ( 22796 PWs)   bands (ev):

   -71.8307 -71.8145 -45.1413 -45.1375 -45.1265 -45.1238 -45.1226 -45.1201
   -45.1198 -45.1188 -45.1061 -45.1049 -45.1043 -45.0976 -45.0965 -45.0955
   -45.0938 -45.0920 -45.0778 -45.0680 -45.0669 -45.0494 -36.2234 -36.2008
   -36.0780 -36.0555 -35.9859 -35.9793 -10.6386 -10.5699 -10.1902 -10.1250
    -4.1002  -4.0211  -2.6531  -2.5595  -1.8189  -1.5993  -1.0481  -0.9609
    -0.3711  -0.2285  -0.0966   0.0101   1.9762   2.0695   4.3207   4.3624
     4.7535   4.8435   5.6465   5.8462   6.4920   6.8101   7.8140

          k = 0.1875 0.3248 0.0000 ( 22779 PWs)   bands (ev):

   -71.8338 -71.8177 -45.1413 -45.1389 -45.1265 -45.1240 -45.1238 -45.1214
   -45.1193 -45.1186 -45.1057 -45.1050 -45.1046 -45.0977 -45.0960 -45.0953
   -45.0952 -45.0927 -45.0785 -45.0674 -45.0668 -45.0501 -36.1567 -36.1341
   -36.0590 -36.0366 -36.0002 -35.9935 -11.2122 -11.0441 -10.8487 -10.7147
    -2.7677  -2.4441  -2.3330  -2.2620  -2.0942  -1.6684  -0.8537  -0.7329
    -0.3856  -0.3296   0.4664   0.5445   2.2978   2.5303   2.8983   3.1825
     4.4502   4.6783   5.1184   5.1948   6.4130   6.8451   8.5129

          k = 0.1875 0.3969 0.0000 ( 22790 PWs)   bands (ev):

   -71.8323 -71.8161 -45.1411 -45.1384 -45.1262 -45.1236 -45.1235 -45.1210
   -45.1195 -45.1187 -45.1058 -45.1050 -45.1045 -45.0974 -45.0962 -45.0955
   -45.0948 -45.0923 -45.0781 -45.0676 -45.0669 -45.0497 -36.1814 -36.1588
   -36.0774 -36.0549 -35.9930 -35.9864 -10.8680 -10.7146 -10.6397 -10.5480
    -2.9703  -2.9086  -2.6949  -2.4002  -1.8221  -1.3862  -1.1940  -1.0504
    -0.7442  -0.6586   0.0376   0.1735   2.4841   2.6560   3.0295   3.3089
     4.7733   4.8985   5.0615   5.1481   6.7428   7.1009   8.4257

          k = 0.1875 0.4691 0.0000 ( 22810 PWs)   bands (ev):

   -71.8311 -71.8149 -45.1409 -45.1381 -45.1260 -45.1234 -45.1232 -45.1207
   -45.1197 -45.1188 -45.1059 -45.1050 -45.1043 -45.0972 -45.0964 -45.0956
   -45.0944 -45.0921 -45.0779 -45.0678 -45.0670 -45.0495 -36.1993 -36.1767
   -36.0924 -36.0698 -35.9876 -35.9810 -10.6364 -10.5298 -10.3937 -10.3172
    -3.4854  -3.4085  -2.6966  -2.4805  -1.5942  -1.3928  -1.2801  -1.0813
    -0.9999  -0.8659  -0.2233  -0.1320   2.4192   2.5678   3.4723   3.6672
     4.8654   4.9236   5.1583   5.3589   6.8149   7.0967   8.3251

          k = 0.1875 0.5413 0.0000 ( 22802 PWs)   bands (ev):

   -71.8304 -71.8142 -45.1408 -45.1379 -45.1259 -45.1233 -45.1231 -45.1205
   -45.1197 -45.1189 -45.1060 -45.1051 -45.1042 -45.0971 -45.0964 -45.0957
   -45.0943 -45.0920 -45.0778 -45.0679 -45.0671 -45.0493 -36.2087 -36.1861
   -36.1007 -36.0782 -35.9846 -35.9780 -10.5296 -10.4627 -10.2076 -10.1510
    -3.7858  -3.7059  -2.6468  -2.5425  -1.6904  -1.4630  -1.2402  -1.1710
    -1.0351  -0.9392  -0.2498  -0.2021   2.3167   2.4668   3.9724   4.0750
     4.6425   4.6884   5.4130   5.5731   6.5967   6.9494   8.2171

          k = 0.2500 0.4330 0.0000 ( 22811 PWs)   bands (ev):

   -71.8311 -71.8149 -45.1406 -45.1383 -45.1258 -45.1235 -45.1231 -45.1209
   -45.1196 -45.1189 -45.1059 -45.1051 -45.1043 -45.0969 -45.0963 -45.0956
   -45.0947 -45.0921 -45.0779 -45.0678 -45.0671 -45.0495 -36.1905 -36.1679
   -36.1014 -36.0788 -35.9876 -35.9810 -10.5925 -10.4658 -10.4354 -10.4030
    -3.2086  -3.1858  -2.6778  -2.4790  -1.6603  -1.3909  -1.3848  -1.2550
    -1.2009  -0.9428  -0.3582  -0.1616   2.7977   2.9784   3.0559   3.2296
     4.8193   4.9258   5.0576   5.2521   6.9617   7.1354   8.2942

          k = 0.2500 0.5052 0.0000 ( 22821 PWs)   bands (ev):

   -71.8303 -71.8141 -45.1403 -45.1384 -45.1254 -45.1235 -45.1228 -45.1209
   -45.1197 -45.1190 -45.1059 -45.1052 -45.1042 -45.0966 -45.0964 -45.0958
   -45.0947 -45.0920 -45.0777 -45.0678 -45.0672 -45.0493 -36.1927 -36.1701
   -36.1212 -36.0986 -35.9840 -35.9774 -10.4319 -10.3572 -10.2621 -10.2156
    -3.3958  -3.3403  -2.6510  -2.5486  -1.8709  -1.7815  -1.4966  -1.2992
    -1.0831  -0.9249  -0.5797  -0.4124   2.7739   2.9441   3.4200   3.5528
     4.5989   4.6085   5.2768   5.6343   6.7449   7.0124   8.0743

          k = 0.2500 0.5774 0.0000 ( 22813 PWs)   bands (ev):

   -71.8300 -71.8138 -45.1401 -45.1384 -45.1252 -45.1235 -45.1226 -45.1209
   -45.1197 -45.1190 -45.1059 -45.1053 -45.1041 -45.0964 -45.0964 -45.0958
   -45.0947 -45.0919 -45.0777 -45.0678 -45.0672 -45.0493 -36.1923 -36.1697
   -36.1294 -36.1068 -35.9827 -35.9761 -10.3777 -10.3305 -10.1811 -10.1461
    -3.4654  -3.3851  -2.6351  -2.5785  -2.0112  -1.9506  -1.4410  -1.2111
    -1.1547  -1.0317  -0.5753  -0.4476   2.7224   2.8907   3.7556   3.9080
     4.2522   4.2900   5.5938   5.7510   6.6196   6.7778   7.9673

          k = 0.3125 0.5413 0.0000 ( 22847 PWs)   bands (ev):

   -71.8298 -71.8136 -45.1397 -45.1387 -45.1248 -45.1239 -45.1223 -45.1212
   -45.1196 -45.1191 -45.1058 -45.1054 -45.1041 -45.0963 -45.0960 -45.0959
   -45.0951 -45.0919 -45.0777 -45.0678 -45.0673 -45.0493 -36.1774 -36.1548
   -36.1485 -36.1260 -35.9820 -35.9754 -10.2909 -10.2529 -10.2058 -10.1764
    -3.1531  -3.0901  -2.6576  -2.6091  -2.4377  -2.3686  -1.4310  -1.1602
    -0.9768  -0.9202  -0.8700  -0.6486   3.1220   3.3092   3.3782   3.5602
     4.1113   4.1347   5.7094   6.0816   6.3743   6.7389   7.9088

     the Fermi energy is     3.0180 ev

!    total energy              =   -3113.97559367 Ry
     total all-electron energy =    -83998.700158 Ry
     estimated scf accuracy    <          9.0E-12 Ry
     smearing contrib. (-TS)   =       0.00073736 Ry
     internal energy E=F+TS    =   -3113.97633104 Ry

     The total energy is F=E-TS. E is the sum of the following terms:
     one-electron contribution =  -11379.34477275 Ry
     hartree contribution      =    5687.08607218 Ry
     xc contribution           =    -193.62572778 Ry
     ewald contribution        =    4533.22257126 Ry
     one-center paw contrib.   =   -1761.31447395 Ry

     convergence has been achieved in  14 iterations

     negative rho (up, down):  9.125E-05 0.000E+00

     Forces acting on atoms (cartesian axes, Ry/au):

     atom    1 type  2   force =     0.00000000   -0.00000000   -0.00043040
     atom    2 type  1   force =     0.00000000   -0.00000000   -0.00039636
     atom    3 type  2   force =     0.00000000    0.00000000   -0.00045002
     atom    4 type  2   force =     0.00000000    0.00000000    0.00039940
     atom    5 type  1   force =     0.00000000    0.00000000    0.00044846
     atom    6 type  2   force =     0.00000000    0.00000000    0.00042892

     Total force =     0.001044     Total SCF correction =     0.000023
     Energy error            =      2.0E-06 Ry
     Gradient error          =      4.5E-04 Ry/Bohr

     bfgs converged in   5 scf cycles and   4 bfgs steps
     (criteria: energy <  1.0E-04 Ry, force <  1.0E-03 Ry/Bohr)

     End of BFGS Geometry Optimization

     Final energy             =   -3113.9755936719 Ry

     File ./tmp/relax/wse2_relax.bfgs deleted, as requested
Begin final coordinates

ATOMIC_POSITIONS (crystal)
Se               0.3333330000        0.6666670000        0.0627547297
W               -0.0000000000       -0.0000000000        0.1199768161
Se               0.6666670000        0.3333330000        0.1772149150
Se               0.3333330000        0.6666670000        0.2777794879
W                0.6666670000        0.3333330000        0.3349876319
Se               0.0000000000        0.0000000000        0.3922864194
End final coordinates



     Writing all to output data dir ./tmp/relax/wse2_relax.save/ :
     XML data file, charge density, pseudopotentials, collected wavefunctions

     init_run     :     13.57s CPU     13.92s WALL (       1 calls)
     electrons    :    960.66s CPU    985.83s WALL (       5 calls)
     update_pot   :      1.56s CPU      1.67s WALL (       4 calls)
     forces       :     15.53s CPU     16.19s WALL (       5 calls)

     Called by init_run:
     wfcinit      :      3.79s CPU      3.86s WALL (       1 calls)
     potinit      :      9.34s CPU      9.57s WALL (       1 calls)
     hinit0       :      0.07s CPU      0.07s WALL (       1 calls)

     Called by electrons:
     c_bands      :    816.87s CPU    828.46s WALL (      70 calls)
     sum_band     :     90.57s CPU     97.27s WALL (      70 calls)
     v_of_rho     :     31.13s CPU     33.23s WALL (      74 calls)
     newd         :     19.90s CPU     24.99s WALL (      74 calls)
     PAW_pot      :      5.45s CPU      5.66s WALL (      78 calls)
     mix_rho      :      8.87s CPU      8.96s WALL (      70 calls)
     vdW_kernel   :      8.98s CPU      9.17s WALL (       1 calls)

     Called by c_bands:
     init_us_2    :      4.43s CPU      4.44s WALL (    4500 calls)
     cegterg      :    795.98s CPU    807.13s WALL (    2100 calls)

     Called by *egterg:
     cdiaghg      :     22.34s CPU     22.38s WALL (    7973 calls)
     h_psi        :    312.49s CPU    316.06s WALL (    8153 calls)
     s_psi        :     55.83s CPU     55.88s WALL (    8153 calls)
     g_psi        :      1.01s CPU      1.01s WALL (    6023 calls)

     Called by h_psi:
     h_psi:calbec :     94.81s CPU     96.22s WALL (    8153 calls)
     vloc_psi     :    161.24s CPU    163.34s WALL (    8153 calls)
                                        0.00s GPU  (    8153 calls)
     add_vuspsi   :     55.49s CPU     55.54s WALL (    8153 calls)

     General routines
     calbec       :    143.71s CPU    145.86s WALL (   10973 calls)
     fft          :     14.96s CPU     15.31s WALL (    4962 calls)
     ffts         :      3.91s CPU      3.94s WALL (    8016 calls)
     fftw         :    181.94s CPU    184.32s WALL (  695648 calls)
     interpolate  :      0.21s CPU      0.21s WALL (      74 calls)

     Parallel routines

     PWSCF        :  16m35.52s CPU  17m 2.20s WALL


   This run was terminated on:  12:34:59  18Jun2026            

=------------------------------------------------------------------------------=
   JOB DONE.
=------------------------------------------------------------------------------=
Note: The following floating-point exceptions are signalling: IEEE_UNDERFLOW_FLAG IEEE_DENORMAL
Note: The following floating-point exceptions are signalling: IEEE_UNDERFLOW_FLAG IEEE_DENORMAL
Note: The following floating-point exceptions are signalling: IEEE_UNDERFLOW_FLAG IEEE_DENORMAL
Note: The following floating-point exceptions are signalling: IEEE_UNDERFLOW_FLAG IEEE_DENORMAL
Note: The following floating-point exceptions are signalling: IEEE_UNDERFLOW_FLAG IEEE_DENORMAL
Note: The following floating-point exceptions are signalling: IEEE_UNDERFLOW_FLAG IEEE_DENORMAL
Note: The following floating-point exceptions are signalling: IEEE_UNDERFLOW_FLAG IEEE_DENORMAL
Note: The following floating-point exceptions are signalling: IEEE_UNDERFLOW_FLAG IEEE_DENORMAL
Note: The following floating-point exceptions are signalling: IEEE_UNDERFLOW_FLAG IEEE_DENORMAL
Note: The following floating-point exceptions are signalling: IEEE_UNDERFLOW_FLAG IEEE_DENORMAL
Note: The following floating-point exceptions are signalling: IEEE_UNDERFLOW_FLAG IEEE_DENORMAL
Note: The following floating-point exceptions are signalling: IEEE_UNDERFLOW_FLAG IEEE_DENORMAL
